 Title="Wellbore flow"
Variables=WellID,Time(s),Dis(m),cumDepth(m),q_aqueous(kg/s),q_liquid(kg/s),q_gas(kg/s),V_aqueous(m/s),V_liquid(m/s),V_gas(m/s)
ZONE T="w_Injection_1km_5bar_1kg_ 1" I=    21 J=1 K=
    1, 0.1000000000000E-02 ,  0.1000000000000E-14 , -0.1000000000000E-14 ,  0.0000000000000E+00 ,  0.0000000000000E+00 ,  0.0000000000000E+00 ,  0.0000000000000E+00 ,  0.0000000000000E+00 ,  0.0000000000000E+00 ,  0.0000000000000E+00 , 
    1, 0.1000000000000E-02 ,  0.5000000000000E+02 , -0.5000000000000E+02 ,  0.0000000000000E+00 ,  0.0000000000000E+00 ,  0.3214874541438E-15 ,  0.0000000000000E+00 ,  0.0000000000000E+00 ,  0.1035729644588E-14 , -0.1035729644588E-14 , 
    1, 0.1000000000000E-02 ,  0.1000000000000E+03 , -0.1500000000000E+03 ,  0.0000000000000E+00 ,  0.0000000000000E+00 ,  0.4881163374411E-15 ,  0.0000000000000E+00 ,  0.0000000000000E+00 ,  0.1564739989915E-14 , -0.1564739989915E-14 , 
    1, 0.1000000000000E-02 ,  0.1500000000000E+03 , -0.2000000000000E+03 ,  0.0000000000000E+00 ,  0.0000000000000E+00 ,  0.4409144825824E-15 ,  0.0000000000000E+00 ,  0.0000000000000E+00 ,  0.1406444266262E-14 , -0.1406444266262E-14 , 
    1, 0.1000000000000E-02 ,  0.2000000000000E+03 , -0.2500000000000E+03 ,  0.0000000000000E+00 ,  0.0000000000000E+00 ,  0.5002345938583E-15 ,  0.0000000000000E+00 ,  0.0000000000000E+00 ,  0.1587820828684E-14 , -0.1587820828684E-14 , 
    1, 0.1000000000000E-02 ,  0.2500000000000E+03 , -0.3000000000000E+03 ,  0.0000000000000E+00 ,  0.0000000000000E+00 ,  0.3076341218429E-15 ,  0.0000000000000E+00 ,  0.0000000000000E+00 ,  0.9717102295692E-15 , -0.9717102295692E-15 , 
    1, 0.1000000000000E-02 ,  0.3000000000000E+03 , -0.3500000000000E+03 ,  0.0000000000000E+00 ,  0.0000000000000E+00 ,  0.7387442736278E-15 ,  0.0000000000000E+00 ,  0.0000000000000E+00 ,  0.2322113966163E-14 , -0.2322113966163E-14 , 
    1, 0.1000000000000E-02 ,  0.3500000000000E+03 , -0.4000000000000E+03 ,  0.0000000000000E+00 ,  0.0000000000000E+00 ,  0.4585080082434E-15 ,  0.0000000000000E+00 ,  0.0000000000000E+00 ,  0.1434284262517E-14 , -0.1434284262517E-14 , 
    1, 0.1000000000000E-02 ,  0.4000000000000E+03 , -0.4500000000000E+03 ,  0.0000000000000E+00 ,  0.0000000000000E+00 ,  0.9170184966573E-15 ,  0.0000000000000E+00 ,  0.0000000000000E+00 ,  0.2854797790032E-14 , -0.2854797790032E-14 , 
    1, 0.1000000000000E-02 ,  0.4500000000000E+03 , -0.5000000000000E+03 ,  0.0000000000000E+00 ,  0.0000000000000E+00 ,  0.1104026089614E-14 ,  0.0000000000000E+00 ,  0.0000000000000E+00 ,  0.3420571713273E-14 , -0.3420571713273E-14 , 
    1, 0.1000000000000E-02 ,  0.5000000000000E+03 , -0.5500000000000E+03 ,  0.0000000000000E+00 ,  0.0000000000000E+00 ,  0.6763353233756E-15 ,  0.0000000000000E+00 ,  0.0000000000000E+00 ,  0.2085525644076E-14 , -0.2085525644076E-14 , 
    1, 0.1000000000000E-02 ,  0.5500000000000E+03 , -0.6000000000000E+03 ,  0.0000000000000E+00 ,  0.0000000000000E+00 ,  0.1125198644064E-14 ,  0.0000000000000E+00 ,  0.0000000000000E+00 ,  0.3453243872015E-14 , -0.3453243872015E-14 , 
    1, 0.1000000000000E-02 ,  0.6000000000000E+03 , -0.6500000000000E+03 ,  0.0000000000000E+00 ,  0.0000000000000E+00 ,  0.8435069502281E-15 ,  0.0000000000000E+00 ,  0.0000000000000E+00 ,  0.2576573168799E-14 , -0.2576573168799E-14 , 
    1, 0.1000000000000E-02 ,  0.6500000000000E+03 , -0.7000000000000E+03 ,  0.0000000000000E+00 ,  0.0000000000000E+00 ,  0.9087547671478E-15 ,  0.0000000000000E+00 ,  0.0000000000000E+00 ,  0.2762916696799E-14 , -0.2762916696799E-14 , 
    1, 0.1000000000000E-02 ,  0.7000000000000E+03 , -0.7500000000000E+03 ,  0.0000000000000E+00 ,  0.0000000000000E+00 ,  0.9987405045371E-15 ,  0.0000000000000E+00 ,  0.0000000000000E+00 ,  0.3022400503088E-14 , -0.3022400503088E-14 , 
    1, 0.1000000000000E-02 ,  0.7500000000000E+03 , -0.8000000000000E+03 ,  0.0000000000000E+00 ,  0.0000000000000E+00 ,  0.1486537850288E-14 ,  0.0000000000000E+00 ,  0.0000000000000E+00 ,  0.4477796295655E-14 , -0.4477796295655E-14 , 
    1, 0.1000000000000E-02 ,  0.8000000000000E+03 , -0.8500000000000E+03 ,  0.0000000000000E+00 ,  0.0000000000000E+00 ,  0.1106411194516E-14 ,  0.0000000000000E+00 ,  0.0000000000000E+00 ,  0.3317428263646E-14 , -0.3317428263646E-14 , 
    1, 0.1000000000000E-02 ,  0.8500000000000E+03 , -0.9000000000000E+03 ,  0.0000000000000E+00 ,  0.0000000000000E+00 ,  0.9456234231900E-15 ,  0.0000000000000E+00 ,  0.0000000000000E+00 ,  0.2822369269720E-14 , -0.2822369269720E-14 , 
    1, 0.1000000000000E-02 ,  0.9000000000000E+03 , -0.9500000000000E+03 ,  0.0000000000000E+00 ,  0.0000000000000E+00 ,  0.1344590766364E-14 ,  0.0000000000000E+00 ,  0.0000000000000E+00 ,  0.3994891340063E-14 , -0.3994891340063E-14 , 
    1, 0.1000000000000E-02 ,  0.9500000000000E+03 , -0.1000000000000E+04 ,  0.0000000000000E+00 ,  0.0000000000000E+00 ,  0.9545309379413E-15 ,  0.0000000000000E+00 ,  0.0000000000000E+00 ,  0.2823160926435E-14 , -0.2823160926435E-14 , 
    1, 0.1000000000000E-02 ,  0.1000000000000E+04 , -0.1050000000000E+04 ,  0.0000000000000E+00 ,  0.0000000000000E+00 ,  0.6112076941104E-15 ,  0.0000000000000E+00 ,  0.0000000000000E+00 ,  0.3869518974287E-14 , -0.3869518974287E-14 , 
    1, 0.2309000000000E-02 ,  0.1000000000000E-14 , -0.1000000000000E-14 ,  0.0000000000000E+00 ,  0.0000000000000E+00 ,  0.3333333333333E-04 ,  0.0000000000000E+00 ,  0.0000000000000E+00 ,  0.1501090842095E-04 , -0.1501090842095E-04 , 
    1, 0.2309000000000E-02 ,  0.5000000000000E+02 , -0.5000000000000E+02 ,  0.0000000000000E+00 ,  0.0000000000000E+00 ,  0.1137632299649E-08 ,  0.0000000000000E+00 ,  0.0000000000000E+00 ,  0.3665087016263E-08 , -0.3665087016263E-08 , 
    1, 0.2309000000000E-02 ,  0.1000000000000E+03 , -0.1500000000000E+03 ,  0.0000000000000E+00 ,  0.0000000000000E+00 ,  0.1301452267631E-12 ,  0.0000000000000E+00 ,  0.0000000000000E+00 ,  0.4172026731994E-12 , -0.4172026731994E-12 , 
    1, 0.2309000000000E-02 ,  0.1500000000000E+03 , -0.2000000000000E+03 ,  0.0000000000000E+00 ,  0.0000000000000E+00 ,  0.8256549793934E-13 ,  0.0000000000000E+00 ,  0.0000000000000E+00 ,  0.2633702809844E-12 , -0.2633702809844E-12 , 
    1, 0.2309000000000E-02 ,  0.2000000000000E+03 , -0.2500000000000E+03 ,  0.0000000000000E+00 ,  0.0000000000000E+00 ,  0.9408125477419E-13 ,  0.0000000000000E+00 ,  0.0000000000000E+00 ,  0.2986282391367E-12 , -0.2986282391367E-12 , 
    1, 0.2309000000000E-02 ,  0.2500000000000E+03 , -0.3000000000000E+03 ,  0.0000000000000E+00 ,  0.0000000000000E+00 ,  0.5810866520809E-13 ,  0.0000000000000E+00 ,  0.0000000000000E+00 ,  0.1835452584748E-12 , -0.1835452584748E-12 , 
    1, 0.2309000000000E-02 ,  0.3000000000000E+03 , -0.3500000000000E+03 ,  0.0000000000000E+00 ,  0.0000000000000E+00 ,  0.1401423757918E-12 ,  0.0000000000000E+00 ,  0.0000000000000E+00 ,  0.4405131514310E-12 , -0.4405131514310E-12 , 
    1, 0.2309000000000E-02 ,  0.3500000000000E+03 , -0.4000000000000E+03 ,  0.0000000000000E+00 ,  0.0000000000000E+00 ,  0.8735391950155E-13 ,  0.0000000000000E+00 ,  0.0000000000000E+00 ,  0.2732566274911E-12 , -0.2732566274911E-12 , 
    1, 0.2309000000000E-02 ,  0.4000000000000E+03 , -0.4500000000000E+03 ,  0.0000000000000E+00 ,  0.0000000000000E+00 ,  0.1754552484481E-12 ,  0.0000000000000E+00 ,  0.0000000000000E+00 ,  0.5462149971292E-12 , -0.5462149971292E-12 , 
    1, 0.2309000000000E-02 ,  0.4500000000000E+03 , -0.5000000000000E+03 ,  0.0000000000000E+00 ,  0.0000000000000E+00 ,  0.2121351873121E-12 ,  0.0000000000000E+00 ,  0.0000000000000E+00 ,  0.6572522406273E-12 , -0.6572522406273E-12 , 
    1, 0.2309000000000E-02 ,  0.5000000000000E+03 , -0.5500000000000E+03 ,  0.0000000000000E+00 ,  0.0000000000000E+00 ,  0.1305064426185E-12 ,  0.0000000000000E+00 ,  0.0000000000000E+00 ,  0.4024254292082E-12 , -0.4024254292082E-12 , 
    1, 0.2309000000000E-02 ,  0.5500000000000E+03 , -0.6000000000000E+03 ,  0.0000000000000E+00 ,  0.0000000000000E+00 ,  0.2180356717818E-12 ,  0.0000000000000E+00 ,  0.0000000000000E+00 ,  0.6691532658998E-12 , -0.6691532658998E-12 , 
    1, 0.2309000000000E-02 ,  0.6000000000000E+03 , -0.6500000000000E+03 ,  0.0000000000000E+00 ,  0.0000000000000E+00 ,  0.1641372655944E-12 ,  0.0000000000000E+00 ,  0.0000000000000E+00 ,  0.5013730763170E-12 , -0.5013730763170E-12 , 
    1, 0.2309000000000E-02 ,  0.6500000000000E+03 , -0.7000000000000E+03 ,  0.0000000000000E+00 ,  0.0000000000000E+00 ,  0.1775729804166E-12 ,  0.0000000000000E+00 ,  0.0000000000000E+00 ,  0.5398809120235E-12 , -0.5398809120235E-12 , 
    1, 0.2309000000000E-02 ,  0.7000000000000E+03 , -0.7500000000000E+03 ,  0.0000000000000E+00 ,  0.0000000000000E+00 ,  0.1959689762453E-12 ,  0.0000000000000E+00 ,  0.0000000000000E+00 ,  0.5930436682030E-12 , -0.5930436682030E-12 , 
    1, 0.2309000000000E-02 ,  0.7500000000000E+03 , -0.8000000000000E+03 ,  0.0000000000000E+00 ,  0.0000000000000E+00 ,  0.2928917055669E-12 ,  0.0000000000000E+00 ,  0.0000000000000E+00 ,  0.8822576525455E-12 , -0.8822576525455E-12 , 
    1, 0.2309000000000E-02 ,  0.8000000000000E+03 , -0.8500000000000E+03 ,  0.0000000000000E+00 ,  0.0000000000000E+00 ,  0.2188952395441E-12 ,  0.0000000000000E+00 ,  0.0000000000000E+00 ,  0.6563285494944E-12 , -0.6563285494944E-12 , 
    1, 0.2309000000000E-02 ,  0.8500000000000E+03 , -0.9000000000000E+03 ,  0.0000000000000E+00 ,  0.0000000000000E+00 ,  0.1878533374749E-12 ,  0.0000000000000E+00 ,  0.0000000000000E+00 ,  0.5606793083813E-12 , -0.5606793083813E-12 , 
    1, 0.2309000000000E-02 ,  0.9000000000000E+03 , -0.9500000000000E+03 ,  0.0000000000000E+00 ,  0.0000000000000E+00 ,  0.2682028477210E-12 ,  0.0000000000000E+00 ,  0.0000000000000E+00 ,  0.7968530355435E-12 , -0.7968530355435E-12 , 
    1, 0.2309000000000E-02 ,  0.9500000000000E+03 , -0.1000000000000E+04 ,  0.0000000000000E+00 ,  0.0000000000000E+00 ,  0.1911740832029E-12 ,  0.0000000000000E+00 ,  0.0000000000000E+00 ,  0.5654245246460E-12 , -0.5654245246460E-12 , 
    1, 0.2309000000000E-02 ,  0.1000000000000E+04 , -0.1050000000000E+04 ,  0.0000000000000E+00 ,  0.0000000000000E+00 ,  0.1229558634831E-12 ,  0.0000000000000E+00 ,  0.0000000000000E+00 ,  0.7784261411175E-12 , -0.7784261411175E-12 , 
    1, 0.4022481000000E-02 ,  0.1000000000000E-14 , -0.1000000000000E-14 ,  0.0000000000000E+00 ,  0.0000000000000E+00 ,  0.7696666666667E-04 ,  0.0000000000000E+00 ,  0.0000000000000E+00 ,  0.3466018754398E-04 , -0.3466018754398E-04 , 
    1, 0.4022481000000E-02 ,  0.5000000000000E+02 , -0.5000000000000E+02 ,  0.0000000000000E+00 ,  0.0000000000000E+00 ,  0.7126916021949E-08 ,  0.0000000000000E+00 ,  0.0000000000000E+00 ,  0.2296064129343E-07 , -0.2296064129343E-07 , 
    1, 0.4022481000000E-02 ,  0.1000000000000E+03 , -0.1500000000000E+03 ,  0.0000000000000E+00 ,  0.0000000000000E+00 ,  0.7201891935166E-12 ,  0.0000000000000E+00 ,  0.0000000000000E+00 ,  0.2308689025462E-11 , -0.2308689025462E-11 , 
    1, 0.4022481000000E-02 ,  0.1500000000000E+03 , -0.2000000000000E+03 ,  0.0000000000000E+00 ,  0.0000000000000E+00 ,  0.1900644816140E-12 ,  0.0000000000000E+00 ,  0.0000000000000E+00 ,  0.6062742571312E-12 , -0.6062742571312E-12 , 
    1, 0.4022481000000E-02 ,  0.2000000000000E+03 , -0.2500000000000E+03 ,  0.0000000000000E+00 ,  0.0000000000000E+00 ,  0.2165764230236E-12 ,  0.0000000000000E+00 ,  0.0000000000000E+00 ,  0.6874465694711E-12 , -0.6874465694711E-12 , 
    1, 0.4022481000000E-02 ,  0.2500000000000E+03 , -0.3000000000000E+03 ,  0.0000000000000E+00 ,  0.0000000000000E+00 ,  0.1337687412362E-12 ,  0.0000000000000E+00 ,  0.0000000000000E+00 ,  0.4225293783315E-12 , -0.4225293783315E-12 , 
    1, 0.4022481000000E-02 ,  0.3000000000000E+03 , -0.3500000000000E+03 ,  0.0000000000000E+00 ,  0.0000000000000E+00 ,  0.3226181771556E-12 ,  0.0000000000000E+00 ,  0.0000000000000E+00 ,  0.1014094053457E-11 , -0.1014094053457E-11 , 
    1, 0.4022481000000E-02 ,  0.3500000000000E+03 , -0.4000000000000E+03 ,  0.0000000000000E+00 ,  0.0000000000000E+00 ,  0.2010978000237E-12 ,  0.0000000000000E+00 ,  0.0000000000000E+00 ,  0.6290651517860E-12 , -0.6290651517860E-12 , 
    1, 0.4022481000000E-02 ,  0.4000000000000E+03 , -0.4500000000000E+03 ,  0.0000000000000E+00 ,  0.0000000000000E+00 ,  0.4039213484444E-12 ,  0.0000000000000E+00 ,  0.0000000000000E+00 ,  0.1257459666396E-11 , -0.1257459666396E-11 , 
    1, 0.4022481000000E-02 ,  0.4500000000000E+03 , -0.5000000000000E+03 ,  0.0000000000000E+00 ,  0.0000000000000E+00 ,  0.4883696080702E-12 ,  0.0000000000000E+00 ,  0.0000000000000E+00 ,  0.1513101259746E-11 , -0.1513101259746E-11 , 
    1, 0.4022481000000E-02 ,  0.5000000000000E+03 , -0.5500000000000E+03 ,  0.0000000000000E+00 ,  0.0000000000000E+00 ,  0.3004507514220E-12 ,  0.0000000000000E+00 ,  0.0000000000000E+00 ,  0.9264601821254E-12 , -0.9264601821254E-12 , 
    1, 0.4022481000000E-02 ,  0.5500000000000E+03 , -0.6000000000000E+03 ,  0.0000000000000E+00 ,  0.0000000000000E+00 ,  0.5019659676649E-12 ,  0.0000000000000E+00 ,  0.0000000000000E+00 ,  0.1540537673898E-11 , -0.1540537673898E-11 , 
    1, 0.4022481000000E-02 ,  0.6000000000000E+03 , -0.6500000000000E+03 ,  0.0000000000000E+00 ,  0.0000000000000E+00 ,  0.3778846470367E-12 ,  0.0000000000000E+00 ,  0.0000000000000E+00 ,  0.1154285026570E-11 , -0.1154285026570E-11 , 
    1, 0.4022481000000E-02 ,  0.6500000000000E+03 , -0.7000000000000E+03 ,  0.0000000000000E+00 ,  0.0000000000000E+00 ,  0.4088219656110E-12 ,  0.0000000000000E+00 ,  0.0000000000000E+00 ,  0.1242954728425E-11 , -0.1242954728425E-11 , 
    1, 0.4022481000000E-02 ,  0.7000000000000E+03 , -0.7500000000000E+03 ,  0.0000000000000E+00 ,  0.0000000000000E+00 ,  0.4511800660989E-12 ,  0.0000000000000E+00 ,  0.0000000000000E+00 ,  0.1365366531713E-11 , -0.1365366531713E-11 , 
    1, 0.4022481000000E-02 ,  0.7500000000000E+03 , -0.8000000000000E+03 ,  0.0000000000000E+00 ,  0.0000000000000E+00 ,  0.6743336770988E-12 ,  0.0000000000000E+00 ,  0.0000000000000E+00 ,  0.2031249214921E-11 , -0.2031249214921E-11 , 
    1, 0.4022481000000E-02 ,  0.8000000000000E+03 , -0.8500000000000E+03 ,  0.0000000000000E+00 ,  0.0000000000000E+00 ,  0.5039752930323E-12 ,  0.0000000000000E+00 ,  0.0000000000000E+00 ,  0.1511103547733E-11 , -0.1511103547733E-11 , 
    1, 0.4022481000000E-02 ,  0.8500000000000E+03 , -0.9000000000000E+03 ,  0.0000000000000E+00 ,  0.0000000000000E+00 ,  0.4325107975779E-12 ,  0.0000000000000E+00 ,  0.0000000000000E+00 ,  0.1290899901557E-11 , -0.1290899901557E-11 , 
    1, 0.4022481000000E-02 ,  0.9000000000000E+03 , -0.9500000000000E+03 ,  0.0000000000000E+00 ,  0.0000000000000E+00 ,  0.6175135449727E-12 ,  0.0000000000000E+00 ,  0.0000000000000E+00 ,  0.1834684258508E-11 , -0.1834684258508E-11 , 
    1, 0.4022481000000E-02 ,  0.9500000000000E+03 , -0.1000000000000E+04 ,  0.0000000000000E+00 ,  0.0000000000000E+00 ,  0.4401673954441E-12 ,  0.0000000000000E+00 ,  0.0000000000000E+00 ,  0.1301857637625E-11 , -0.1301857637625E-11 , 
    1, 0.4022481000000E-02 ,  0.1000000000000E+04 , -0.1050000000000E+04 ,  0.0000000000000E+00 ,  0.0000000000000E+00 ,  0.2831623169555E-12 ,  0.0000000000000E+00 ,  0.0000000000000E+00 ,  0.1792683516292E-11 , -0.1792683516292E-11 , 
    1, 0.6265427629000E-02 ,  0.1000000000000E-14 , -0.1000000000000E-14 ,  0.0000000000000E+00 ,  0.0000000000000E+00 ,  0.1340827000000E-03 ,  0.0000000000000E+00 ,  0.0000000000000E+00 ,  0.6038109391602E-04 , -0.6038109391602E-04 , 
    1, 0.6265427629000E-02 ,  0.5000000000000E+02 , -0.5000000000000E+02 ,  0.0000000000000E+00 ,  0.0000000000000E+00 ,  0.2839642016879E-07 ,  0.0000000000000E+00 ,  0.0000000000000E+00 ,  0.9148417111573E-07 , -0.9148417111573E-07 , 
    1, 0.6265427629000E-02 ,  0.1000000000000E+03 , -0.1500000000000E+03 ,  0.0000000000000E+00 ,  0.0000000000000E+00 ,  0.4361693191991E-11 ,  0.0000000000000E+00 ,  0.0000000000000E+00 ,  0.1398214982312E-10 , -0.1398214982312E-10 , 
    1, 0.6265427629000E-02 ,  0.1500000000000E+03 , -0.2000000000000E+03 ,  0.0000000000000E+00 ,  0.0000000000000E+00 ,  0.3311765044076E-12 ,  0.0000000000000E+00 ,  0.0000000000000E+00 ,  0.1056398268019E-11 , -0.1056398268019E-11 , 
    1, 0.6265427629000E-02 ,  0.2000000000000E+03 , -0.2500000000000E+03 ,  0.0000000000000E+00 ,  0.0000000000000E+00 ,  0.3769185080017E-12 ,  0.0000000000000E+00 ,  0.0000000000000E+00 ,  0.1196396780769E-11 , -0.1196396780769E-11 , 
    1, 0.6265427629000E-02 ,  0.2500000000000E+03 , -0.3000000000000E+03 ,  0.0000000000000E+00 ,  0.0000000000000E+00 ,  0.2328052557265E-12 ,  0.0000000000000E+00 ,  0.0000000000000E+00 ,  0.7353516155223E-12 , -0.7353516155223E-12 , 
    1, 0.6265427629000E-02 ,  0.3000000000000E+03 , -0.3500000000000E+03 ,  0.0000000000000E+00 ,  0.0000000000000E+00 ,  0.5614729145089E-12 ,  0.0000000000000E+00 ,  0.0000000000000E+00 ,  0.1764892321941E-11 , -0.1764892321941E-11 , 
    1, 0.6265427629000E-02 ,  0.3500000000000E+03 , -0.4000000000000E+03 ,  0.0000000000000E+00 ,  0.0000000000000E+00 ,  0.3499847475801E-12 ,  0.0000000000000E+00 ,  0.0000000000000E+00 ,  0.1094806647976E-11 , -0.1094806647976E-11 , 
    1, 0.6265427629000E-02 ,  0.4000000000000E+03 , -0.4500000000000E+03 ,  0.0000000000000E+00 ,  0.0000000000000E+00 ,  0.7029758605200E-12 ,  0.0000000000000E+00 ,  0.0000000000000E+00 ,  0.2188455238770E-11 , -0.2188455238770E-11 , 
    1, 0.6265427629000E-02 ,  0.4500000000000E+03 , -0.5000000000000E+03 ,  0.0000000000000E+00 ,  0.0000000000000E+00 ,  0.8499512649139E-12 ,  0.0000000000000E+00 ,  0.0000000000000E+00 ,  0.2633379121903E-11 , -0.2633379121903E-11 , 
    1, 0.6265427629000E-02 ,  0.5000000000000E+03 , -0.5500000000000E+03 ,  0.0000000000000E+00 ,  0.0000000000000E+00 ,  0.5229021944820E-12 ,  0.0000000000000E+00 ,  0.0000000000000E+00 ,  0.1612404229448E-11 , -0.1612404229448E-11 , 
    1, 0.6265427629000E-02 ,  0.5500000000000E+03 , -0.6000000000000E+03 ,  0.0000000000000E+00 ,  0.0000000000000E+00 ,  0.8736212780172E-12 ,  0.0000000000000E+00 ,  0.0000000000000E+00 ,  0.2681150871174E-11 , -0.2681150871174E-11 , 
    1, 0.6265427629000E-02 ,  0.6000000000000E+03 , -0.6500000000000E+03 ,  0.0000000000000E+00 ,  0.0000000000000E+00 ,  0.6576728609387E-12 ,  0.0000000000000E+00 ,  0.0000000000000E+00 ,  0.2008925056141E-11 , -0.2008925056141E-11 , 
    1, 0.6265427629000E-02 ,  0.6500000000000E+03 , -0.7000000000000E+03 ,  0.0000000000000E+00 ,  0.0000000000000E+00 ,  0.7115192004403E-12 ,  0.0000000000000E+00 ,  0.0000000000000E+00 ,  0.2163254983696E-11 , -0.2163254983696E-11 , 
    1, 0.6265427629000E-02 ,  0.7000000000000E+03 , -0.7500000000000E+03 ,  0.0000000000000E+00 ,  0.0000000000000E+00 ,  0.7852429033756E-12 ,  0.0000000000000E+00 ,  0.0000000000000E+00 ,  0.2376311499762E-11 , -0.2376311499762E-11 , 
    1, 0.6265427629000E-02 ,  0.7500000000000E+03 , -0.8000000000000E+03 ,  0.0000000000000E+00 ,  0.0000000000000E+00 ,  0.1173628550375E-11 ,  0.0000000000000E+00 ,  0.0000000000000E+00 ,  0.3535241012749E-11 , -0.3535241012749E-11 , 
    1, 0.6265427629000E-02 ,  0.8000000000000E+03 , -0.8500000000000E+03 ,  0.0000000000000E+00 ,  0.0000000000000E+00 ,  0.8771356200390E-12 ,  0.0000000000000E+00 ,  0.0000000000000E+00 ,  0.2629975646840E-11 , -0.2629975646840E-11 , 
    1, 0.6265427629000E-02 ,  0.8500000000000E+03 , -0.9000000000000E+03 ,  0.0000000000000E+00 ,  0.0000000000000E+00 ,  0.7527592952869E-12 ,  0.0000000000000E+00 ,  0.0000000000000E+00 ,  0.2246734429808E-11 , -0.2246734429808E-11 , 
    1, 0.6265427629000E-02 ,  0.9000000000000E+03 , -0.9500000000000E+03 ,  0.0000000000000E+00 ,  0.0000000000000E+00 ,  0.1074749662949E-11 ,  0.0000000000000E+00 ,  0.0000000000000E+00 ,  0.3193170910180E-11 , -0.3193170910180E-11 , 
    1, 0.6265427629000E-02 ,  0.9500000000000E+03 , -0.1000000000000E+04 ,  0.0000000000000E+00 ,  0.0000000000000E+00 ,  0.7660926474480E-12 ,  0.0000000000000E+00 ,  0.0000000000000E+00 ,  0.2265827897594E-11 , -0.2265827897594E-11 , 
    1, 0.6265427629000E-02 ,  0.1000000000000E+04 , -0.1050000000000E+04 ,  0.0000000000000E+00 ,  0.0000000000000E+00 ,  0.4929858152104E-12 ,  0.0000000000000E+00 ,  0.0000000000000E+00 ,  0.3121063403476E-11 , -0.3121063403476E-11 , 
    1, 0.9201444766361E-02 ,  0.1000000000000E-14 , -0.1000000000000E-14 ,  0.0000000000000E+00 ,  0.0000000000000E+00 ,  0.2088475876333E-03 ,  0.0000000000000E+00 ,  0.0000000000000E+00 ,  0.9404976035702E-04 , -0.9404976035702E-04 , 
    1, 0.9201444766361E-02 ,  0.5000000000000E+02 , -0.5000000000000E+02 ,  0.0000000000000E+00 ,  0.0000000000000E+00 ,  0.9206399012147E-07 ,  0.0000000000000E+00 ,  0.0000000000000E+00 ,  0.2966006786467E-06 , -0.2966006786467E-06 , 
    1, 0.9201444766361E-02 ,  0.1000000000000E+03 , -0.1500000000000E+03 ,  0.0000000000000E+00 ,  0.0000000000000E+00 ,  0.2506338372559E-10 ,  0.0000000000000E+00 ,  0.0000000000000E+00 ,  0.8034494195122E-10 , -0.8034494195122E-10 , 
    1, 0.9201444766361E-02 ,  0.1500000000000E+03 , -0.2000000000000E+03 ,  0.0000000000000E+00 ,  0.0000000000000E+00 ,  0.5202063391289E-12 ,  0.0000000000000E+00 ,  0.0000000000000E+00 ,  0.1659372172707E-11 , -0.1659372172707E-11 , 
    1, 0.9201444766361E-02 ,  0.2000000000000E+03 , -0.2500000000000E+03 ,  0.0000000000000E+00 ,  0.0000000000000E+00 ,  0.5868037063659E-12 ,  0.0000000000000E+00 ,  0.0000000000000E+00 ,  0.1862604383535E-11 , -0.1862604383535E-11 , 
    1, 0.9201444766361E-02 ,  0.2500000000000E+03 , -0.3000000000000E+03 ,  0.0000000000000E+00 ,  0.0000000000000E+00 ,  0.3625727788025E-12 ,  0.0000000000000E+00 ,  0.0000000000000E+00 ,  0.1145242523863E-11 , -0.1145242523863E-11 , 
    1, 0.9201444766361E-02 ,  0.3000000000000E+03 , -0.3500000000000E+03 ,  0.0000000000000E+00 ,  0.0000000000000E+00 ,  0.8739995834313E-12 ,  0.0000000000000E+00 ,  0.0000000000000E+00 ,  0.2747265476780E-11 , -0.2747265476780E-11 , 
    1, 0.9201444766361E-02 ,  0.3500000000000E+03 , -0.4000000000000E+03 ,  0.0000000000000E+00 ,  0.0000000000000E+00 ,  0.5450056882320E-12 ,  0.0000000000000E+00 ,  0.0000000000000E+00 ,  0.1704862439826E-11 , -0.1704862439826E-11 , 
    1, 0.9201444766361E-02 ,  0.4000000000000E+03 , -0.4500000000000E+03 ,  0.0000000000000E+00 ,  0.0000000000000E+00 ,  0.1094299885487E-11 ,  0.0000000000000E+00 ,  0.0000000000000E+00 ,  0.3406697799564E-11 , -0.3406697799564E-11 , 
    1, 0.9201444766361E-02 ,  0.4500000000000E+03 , -0.5000000000000E+03 ,  0.0000000000000E+00 ,  0.0000000000000E+00 ,  0.1323125494006E-11 ,  0.0000000000000E+00 ,  0.0000000000000E+00 ,  0.4099400983803E-11 , -0.4099400983803E-11 , 
    1, 0.9201444766361E-02 ,  0.5000000000000E+03 , -0.5500000000000E+03 ,  0.0000000000000E+00 ,  0.0000000000000E+00 ,  0.8143482173100E-12 ,  0.0000000000000E+00 ,  0.0000000000000E+00 ,  0.2511097722844E-11 , -0.2511097722844E-11 , 
    1, 0.9201444766361E-02 ,  0.5500000000000E+03 , -0.6000000000000E+03 ,  0.0000000000000E+00 ,  0.0000000000000E+00 ,  0.1359981759740E-11 ,  0.0000000000000E+00 ,  0.0000000000000E+00 ,  0.4173795180658E-11 , -0.4173795180658E-11 , 
    1, 0.9201444766361E-02 ,  0.6000000000000E+03 , -0.6500000000000E+03 ,  0.0000000000000E+00 ,  0.0000000000000E+00 ,  0.1023911130091E-11 ,  0.0000000000000E+00 ,  0.0000000000000E+00 ,  0.3127635100475E-11 , -0.3127635100475E-11 , 
    1, 0.9201444766361E-02 ,  0.6500000000000E+03 , -0.7000000000000E+03 ,  0.0000000000000E+00 ,  0.0000000000000E+00 ,  0.1107745011582E-11 ,  0.0000000000000E+00 ,  0.0000000000000E+00 ,  0.3367913213705E-11 , -0.3367913213705E-11 , 
    1, 0.9201444766361E-02 ,  0.7000000000000E+03 , -0.7500000000000E+03 ,  0.0000000000000E+00 ,  0.0000000000000E+00 ,  0.1222656126424E-11 ,  0.0000000000000E+00 ,  0.0000000000000E+00 ,  0.3700016645786E-11 , -0.3700016645786E-11 , 
    1, 0.9201444766361E-02 ,  0.7500000000000E+03 , -0.8000000000000E+03 ,  0.0000000000000E+00 ,  0.0000000000000E+00 ,  0.1826936832115E-11 ,  0.0000000000000E+00 ,  0.0000000000000E+00 ,  0.5503156867248E-11 , -0.5503156867248E-11 , 
    1, 0.9201444766361E-02 ,  0.8000000000000E+03 , -0.8500000000000E+03 ,  0.0000000000000E+00 ,  0.0000000000000E+00 ,  0.1365726837223E-11 ,  0.0000000000000E+00 ,  0.0000000000000E+00 ,  0.4094952069067E-11 , -0.4094952069067E-11 , 
    1, 0.9201444766361E-02 ,  0.8500000000000E+03 , -0.9000000000000E+03 ,  0.0000000000000E+00 ,  0.0000000000000E+00 ,  0.1172089781470E-11 ,  0.0000000000000E+00 ,  0.0000000000000E+00 ,  0.3498295515370E-11 , -0.3498295515370E-11 , 
    1, 0.9201444766361E-02 ,  0.9000000000000E+03 , -0.9500000000000E+03 ,  0.0000000000000E+00 ,  0.0000000000000E+00 ,  0.1673003709448E-11 ,  0.0000000000000E+00 ,  0.0000000000000E+00 ,  0.4970633591989E-11 , -0.4970633591989E-11 , 
    1, 0.9201444766361E-02 ,  0.9500000000000E+03 , -0.1000000000000E+04 ,  0.0000000000000E+00 ,  0.0000000000000E+00 ,  0.1192725961534E-11 ,  0.0000000000000E+00 ,  0.0000000000000E+00 ,  0.3527656565862E-11 , -0.3527656565862E-11 , 
    1, 0.9201444766361E-02 ,  0.1000000000000E+04 , -0.1050000000000E+04 ,  0.0000000000000E+00 ,  0.0000000000000E+00 ,  0.7678724137459E-12 ,  0.0000000000000E+00 ,  0.0000000000000E+00 ,  0.4861353846578E-11 , -0.4861353846578E-11 , 
    1, 0.1304469119917E-01 ,  0.1000000000000E-14 , -0.1000000000000E-14 ,  0.0000000000000E+00 ,  0.0000000000000E+00 ,  0.3067148255454E-03 ,  0.0000000000000E+00 ,  0.0000000000000E+00 ,  0.1381220447283E-03 , -0.1381220447283E-03 , 
    1, 0.1304469119917E-01 ,  0.5000000000000E+02 , -0.5000000000000E+02 ,  0.0000000000000E+00 ,  0.0000000000000E+00 ,  0.2654831760316E-06 ,  0.0000000000000E+00 ,  0.0000000000000E+00 ,  0.8553016668068E-06 , -0.8553016668068E-06 , 
    1, 0.1304469119917E-01 ,  0.1000000000000E+03 , -0.1500000000000E+03 ,  0.0000000000000E+00 ,  0.0000000000000E+00 ,  0.1308644212463E-09 ,  0.0000000000000E+00 ,  0.0000000000000E+00 ,  0.4195081734751E-09 , -0.4195081734751E-09 , 
    1, 0.1304469119917E-01 ,  0.1500000000000E+03 , -0.2000000000000E+03 ,  0.0000000000000E+00 ,  0.0000000000000E+00 ,  0.8065310049551E-12 ,  0.0000000000000E+00 ,  0.0000000000000E+00 ,  0.2572700494748E-11 , -0.2572700494748E-11 , 
    1, 0.1304469119917E-01 ,  0.2000000000000E+03 , -0.2500000000000E+03 ,  0.0000000000000E+00 ,  0.0000000000000E+00 ,  0.8613822139920E-12 ,  0.0000000000000E+00 ,  0.0000000000000E+00 ,  0.2734158408128E-11 , -0.2734158408128E-11 , 
    1, 0.1304469119917E-01 ,  0.2500000000000E+03 , -0.3000000000000E+03 ,  0.0000000000000E+00 ,  0.0000000000000E+00 ,  0.5327854523265E-12 ,  0.0000000000000E+00 ,  0.0000000000000E+00 ,  0.1682885731563E-11 , -0.1682885731563E-11 , 
    1, 0.1304469119917E-01 ,  0.3000000000000E+03 , -0.3500000000000E+03 ,  0.0000000000000E+00 ,  0.0000000000000E+00 ,  0.1282767667044E-11 ,  0.0000000000000E+00 ,  0.0000000000000E+00 ,  0.4032156757516E-11 , -0.4032156757516E-11 , 
    1, 0.1304469119917E-01 ,  0.3500000000000E+03 , -0.4000000000000E+03 ,  0.0000000000000E+00 ,  0.0000000000000E+00 ,  0.8006359183987E-12 ,  0.0000000000000E+00 ,  0.0000000000000E+00 ,  0.2504513502751E-11 , -0.2504513502751E-11 , 
    1, 0.1304469119917E-01 ,  0.4000000000000E+03 , -0.4500000000000E+03 ,  0.0000000000000E+00 ,  0.0000000000000E+00 ,  0.1606560487967E-11 ,  0.0000000000000E+00 ,  0.0000000000000E+00 ,  0.5001431647582E-11 , -0.5001431647582E-11 , 
    1, 0.1304469119917E-01 ,  0.4500000000000E+03 , -0.5000000000000E+03 ,  0.0000000000000E+00 ,  0.0000000000000E+00 ,  0.1942190438367E-11 ,  0.0000000000000E+00 ,  0.0000000000000E+00 ,  0.6017431777896E-11 , -0.6017431777896E-11 , 
    1, 0.1304469119917E-01 ,  0.5000000000000E+03 , -0.5500000000000E+03 ,  0.0000000000000E+00 ,  0.0000000000000E+00 ,  0.1196205251486E-11 ,  0.0000000000000E+00 ,  0.0000000000000E+00 ,  0.3688579675390E-11 , -0.3688579675390E-11 , 
    1, 0.1304469119917E-01 ,  0.5500000000000E+03 , -0.6000000000000E+03 ,  0.0000000000000E+00 ,  0.0000000000000E+00 ,  0.1996308066437E-11 ,  0.0000000000000E+00 ,  0.0000000000000E+00 ,  0.6126685837607E-11 , -0.6126685837607E-11 , 
    1, 0.1304469119917E-01 ,  0.6000000000000E+03 , -0.6500000000000E+03 ,  0.0000000000000E+00 ,  0.0000000000000E+00 ,  0.1503503935750E-11 ,  0.0000000000000E+00 ,  0.0000000000000E+00 ,  0.4592597487181E-11 , -0.4592597487181E-11 , 
    1, 0.1304469119917E-01 ,  0.6500000000000E+03 , -0.7000000000000E+03 ,  0.0000000000000E+00 ,  0.0000000000000E+00 ,  0.1626422222108E-11 ,  0.0000000000000E+00 ,  0.0000000000000E+00 ,  0.4944864418826E-11 , -0.4944864418826E-11 , 
    1, 0.1304469119917E-01 ,  0.7000000000000E+03 , -0.7500000000000E+03 ,  0.0000000000000E+00 ,  0.0000000000000E+00 ,  0.1795586551236E-11 ,  0.0000000000000E+00 ,  0.0000000000000E+00 ,  0.5433825574451E-11 , -0.5433825574451E-11 , 
    1, 0.1304469119917E-01 ,  0.7500000000000E+03 , -0.8000000000000E+03 ,  0.0000000000000E+00 ,  0.0000000000000E+00 ,  0.2681632475326E-11 ,  0.0000000000000E+00 ,  0.0000000000000E+00 ,  0.8077698096953E-11 , -0.8077698096953E-11 , 
    1, 0.1304469119917E-01 ,  0.8000000000000E+03 , -0.8500000000000E+03 ,  0.0000000000000E+00 ,  0.0000000000000E+00 ,  0.2005314437083E-11 ,  0.0000000000000E+00 ,  0.0000000000000E+00 ,  0.6012671260060E-11 , -0.6012671260060E-11 , 
    1, 0.1304469119917E-01 ,  0.8500000000000E+03 , -0.9000000000000E+03 ,  0.0000000000000E+00 ,  0.0000000000000E+00 ,  0.1721353247340E-11 ,  0.0000000000000E+00 ,  0.0000000000000E+00 ,  0.5137663036345E-11 , -0.5137663036345E-11 , 
    1, 0.1304469119917E-01 ,  0.9000000000000E+03 , -0.9500000000000E+03 ,  0.0000000000000E+00 ,  0.0000000000000E+00 ,  0.2455803562638E-11 ,  0.0000000000000E+00 ,  0.0000000000000E+00 ,  0.7296397261307E-11 , -0.7296397261307E-11 , 
    1, 0.1304469119917E-01 ,  0.9500000000000E+03 , -0.1000000000000E+04 ,  0.0000000000000E+00 ,  0.0000000000000E+00 ,  0.1751207084772E-11 ,  0.0000000000000E+00 ,  0.0000000000000E+00 ,  0.5179443870607E-11 , -0.5179443870607E-11 , 