 Title="Wellbore status"
Variables=WellID,Time(s),Dis(m),cumDepth(m),S_aqueous,S_liquid,S_gas,XCO2liq(kg/kg),Pres(Pa),T(<sup<o</sup>C),D_aqueous(kg/m<sup>3</sup>),D_liquid(kg/m<sup>3</sup>),D_gas(kg/m<sup>3</sup>)
ZONE T="_Injection_1km_5bar_1kg_ 1" I=    22 J=1 K=
    1, 0.1000000000000E-02 ,  0.0000000000000E+00 ,  0.0000000000000E+00 ,  0.0000000000000E+00 ,  0.0000000000000E+00 ,  0.1000000000000E+01 ,  0.0000000000000E+00 ,  0.2500000000000E+07 ,  0.5000000000000E+01 ,  0.1000796030277E+04 ,  0.8950218000000E+03 ,  0.5815239444432E+02
    1, 0.1000000000000E-02 ,  0.2500000000000E+02 , -0.2500000000000E+02 ,  0.0000000000000E+00 ,  0.0000000000000E+00 ,  0.1000000000000E+01 ,  0.0000000000000E+00 ,  0.4163258649738E+06 ,  0.5625000000000E+01 ,  0.1000100953062E+04 ,  0.8908672400000E+03 ,  0.8128556981746E+01
    1, 0.1000000000000E-02 ,  0.7500000000000E+02 , -0.1000000000000E+03 ,  0.0000000000000E+00 ,  0.0000000000000E+00 ,  0.1000000000000E+01 ,  0.0000000000000E+00 ,  0.4203214928741E+06 ,  0.6875000000000E+01 ,  0.1000070908065E+04 ,  0.8824244950000E+03 ,  0.8169152317540E+01
    1, 0.1000000000000E-02 ,  0.1250000000000E+03 , -0.1500000000000E+03 ,  0.0000000000000E+00 ,  0.0000000000000E+00 ,  0.1000000000000E+01 ,  0.0000000000000E+00 ,  0.4243370159716E+06 ,  0.8125000000000E+01 ,  0.1000016426532E+04 ,  0.8737372050000E+03 ,  0.8209707216206E+01
    1, 0.1000000000000E-02 ,  0.1750000000000E+03 , -0.2000000000000E+03 ,  0.0000000000000E+00 ,  0.0000000000000E+00 ,  0.1000000000000E+01 ,  0.0000000000000E+00 ,  0.4283724258095E+06 ,  0.9375000000000E+01 ,  0.9999384522743E+03 ,  0.8647681550000E+03 ,  0.8250268057517E+01
    1, 0.1000000000000E-02 ,  0.2250000000000E+03 , -0.2500000000000E+03 ,  0.0000000000000E+00 ,  0.0000000000000E+00 ,  0.1000000000000E+01 ,  0.0000000000000E+00 ,  0.4324277032934E+06 ,  0.1062500000000E+02 ,  0.9998378684682E+03 ,  0.8555209150000E+03 ,  0.8290745072391E+01
    1, 0.1000000000000E-02 ,  0.2750000000000E+03 , -0.3000000000000E+03 ,  0.0000000000000E+00 ,  0.0000000000000E+00 ,  0.1000000000000E+01 ,  0.0000000000000E+00 ,  0.4365028171351E+06 ,  0.1187500000000E+02 ,  0.9997155020622E+03 ,  0.8459676450000E+03 ,  0.8331178292518E+01
    1, 0.1000000000000E-02 ,  0.3250000000000E+03 , -0.3500000000000E+03 ,  0.0000000000000E+00 ,  0.0000000000000E+00 ,  0.1000000000000E+01 ,  0.0000000000000E+00 ,  0.4405977493075E+06 ,  0.1312500000000E+02 ,  0.9995721278564E+03 ,  0.8360578500000E+03 ,  0.8371581777393E+01
    1, 0.1000000000000E-02 ,  0.3750000000000E+03 , -0.4000000000000E+03 ,  0.0000000000000E+00 ,  0.0000000000000E+00 ,  0.1000000000000E+01 ,  0.0000000000000E+00 ,  0.4447124928646E+06 ,  0.1437500000000E+02 ,  0.9994084722545E+03 ,  0.8257288950000E+03 ,  0.8411986665032E+01
    1, 0.1000000000000E-02 ,  0.4250000000000E+03 , -0.4500000000000E+03 ,  0.0000000000000E+00 ,  0.0000000000000E+00 ,  0.1000000000000E+01 ,  0.0000000000000E+00 ,  0.4488470331724E+06 ,  0.1562500000000E+02 ,  0.9992252167135E+03 ,  0.8149734750000E+03 ,  0.8452330460068E+01
    1, 0.1000000000000E-02 ,  0.4750000000000E+03 , -0.5000000000000E+03 ,  0.0000000000000E+00 ,  0.0000000000000E+00 ,  0.1000000000000E+01 ,  0.0000000000000E+00 ,  0.4530013451899E+06 ,  0.1687500000000E+02 ,  0.9990230009236E+03 ,  0.8037400050000E+03 ,  0.8492633208121E+01
    1, 0.1000000000000E-02 ,  0.5250000000000E+03 , -0.5500000000000E+03 ,  0.0000000000000E+00 ,  0.0000000000000E+00 ,  0.1000000000000E+01 ,  0.0000000000000E+00 ,  0.4571754154631E+06 ,  0.1812500000000E+02 ,  0.9988024257422E+03 ,  0.7919318600000E+03 ,  0.8532922125349E+01
    1, 0.1000000000000E-02 ,  0.5750000000000E+03 , -0.6000000000000E+03 ,  0.0000000000000E+00 ,  0.0000000000000E+00 ,  0.1000000000000E+01 ,  0.0000000000000E+00 ,  0.4613692333538E+06 ,  0.1937500000000E+02 ,  0.9985640558829E+03 ,  0.7794194100000E+03 ,  0.8573181482089E+01
    1, 0.1000000000000E-02 ,  0.6250000000000E+03 , -0.6500000000000E+03 ,  0.0000000000000E+00 ,  0.0000000000000E+00 ,  0.1000000000000E+01 ,  0.0000000000000E+00 ,  0.4655827822199E+06 ,  0.2062500000000E+02 ,  0.9983084223905E+03 ,  0.7661621800000E+03 ,  0.8613402517518E+01
    1, 0.1000000000000E-02 ,  0.6750000000000E+03 , -0.7000000000000E+03 ,  0.0000000000000E+00 ,  0.0000000000000E+00 ,  0.1000000000000E+01 ,  0.0000000000000E+00 ,  0.4698160452580E+06 ,  0.2187500000000E+02 ,  0.9980360249256E+03 ,  0.7520278100000E+03 ,  0.8653593335386E+01
    1, 0.1000000000000E-02 ,  0.7250000000000E+03 , -0.7500000000000E+03 ,  0.0000000000000E+00 ,  0.0000000000000E+00 ,  0.1000000000000E+01 ,  0.0000000000000E+00 ,  0.4740690082739E+06 ,  0.2312500000000E+02 ,  0.9977473338708E+03 ,  0.7367738200000E+03 ,  0.8693756474316E+01
    1, 0.1000000000000E-02 ,  0.7750000000000E+03 , -0.8000000000000E+03 ,  0.0000000000000E+00 ,  0.0000000000000E+00 ,  0.1000000000000E+01 ,  0.0000000000000E+00 ,  0.4783416726772E+06 ,  0.2437500000000E+02 ,  0.9974427922816E+03 ,  0.7200360650000E+03 ,  0.8733953042100E+01
    1, 0.1000000000000E-02 ,  0.8250000000000E+03 , -0.8500000000000E+03 ,  0.0000000000000E+00 ,  0.0000000000000E+00 ,  0.1000000000000E+01 ,  0.0000000000000E+00 ,  0.4826340228034E+06 ,  0.2562500000000E+02 ,  0.9971228176782E+03 ,  0.7015667100000E+03 ,  0.8774052286631E+01
    1, 0.1000000000000E-02 ,  0.8750000000000E+03 , -0.9000000000000E+03 ,  0.0000000000000E+00 ,  0.0000000000000E+00 ,  0.1000000000000E+01 ,  0.0000000000000E+00 ,  0.4869460371439E+06 ,  0.2687500000000E+02 ,  0.9967878037249E+03 ,  0.6808105550000E+03 ,  0.8814161123470E+01
    1, 0.1000000000000E-02 ,  0.9250000000000E+03 , -0.9500000000000E+03 ,  0.0000000000000E+00 ,  0.0000000000000E+00 ,  0.1000000000000E+01 ,  0.0000000000000E+00 ,  0.4912777052904E+06 ,  0.2812500000000E+02 ,  0.9964381217979E+03 ,  0.6565980550000E+03 ,  0.8854217914188E+01
    1, 0.1000000000000E-02 ,  0.9750000000000E+03 , -0.1000000000000E+04 ,  0.0000000000000E+00 ,  0.0000000000000E+00 ,  0.1000000000000E+01 ,  0.0000000000000E+00 ,  0.4956290284720E+06 ,  0.2937500000000E+02 ,  0.9960741224485E+03 ,  0.6264869400000E+03 ,  0.8894331763746E+01
    1, 0.1000000000000E-02 ,  0.1025000000000E+04 , -0.1050000000000E+04 ,  0.0000000000000E+00 ,  0.0000000000000E+00 ,  0.1000000000000E+01 ,  0.0000000000000E+00 ,  0.5000000000000E+06 ,  0.3062500000000E+02 ,  0.9956961367679E+03 ,  0.8934361272632E+01 ,  0.8934361272632E+01
    1, 0.2309000000000E-02 ,  0.0000000000000E+00 ,  0.0000000000000E+00 ,  0.0000000000000E+00 ,  0.0000000000000E+00 ,  0.1000000000000E+01 ,  0.0000000000000E+00 ,  0.2500000000000E+07 ,  0.5000000000000E+01 ,  0.1000796030277E+04 ,  0.8950218000000E+03 ,  0.5815239444432E+02
    1, 0.2309000000000E-02 ,  0.2500000000000E+02 , -0.2500000000000E+02 ,  0.0000000000000E+00 ,  0.0000000000000E+00 ,  0.1000000000000E+01 ,  0.0000000000000E+00 ,  0.4163258661090E+06 ,  0.5625000002255E+01 ,  0.1000100953062E+04 ,  0.8908672399850E+03 ,  0.8128557004602E+01
    1, 0.2309000000000E-02 ,  0.7500000000000E+02 , -0.1000000000000E+03 ,  0.0000000000000E+00 ,  0.0000000000000E+00 ,  0.1000000000000E+01 ,  0.0000000000000E+00 ,  0.4203214928741E+06 ,  0.6875000000000E+01 ,  0.1000070908065E+04 ,  0.8824244950000E+03 ,  0.8169152317540E+01
    1, 0.2309000000000E-02 ,  0.1250000000000E+03 , -0.1500000000000E+03 ,  0.0000000000000E+00 ,  0.0000000000000E+00 ,  0.1000000000000E+01 ,  0.0000000000000E+00 ,  0.4243370159716E+06 ,  0.8125000000000E+01 ,  0.1000016426532E+04 ,  0.8737372050000E+03 ,  0.8209707216206E+01
    1, 0.2309000000000E-02 ,  0.1750000000000E+03 , -0.2000000000000E+03 ,  0.0000000000000E+00 ,  0.0000000000000E+00 ,  0.1000000000000E+01 ,  0.0000000000000E+00 ,  0.4283724258095E+06 ,  0.9375000000000E+01 ,  0.9999384522743E+03 ,  0.8647681550000E+03 ,  0.8250268057517E+01
    1, 0.2309000000000E-02 ,  0.2250000000000E+03 , -0.2500000000000E+03 ,  0.0000000000000E+00 ,  0.0000000000000E+00 ,  0.1000000000000E+01 ,  0.0000000000000E+00 ,  0.4324277032934E+06 ,  0.1062500000000E+02 ,  0.9998378684682E+03 ,  0.8555209150000E+03 ,  0.8290745072391E+01
    1, 0.2309000000000E-02 ,  0.2750000000000E+03 , -0.3000000000000E+03 ,  0.0000000000000E+00 ,  0.0000000000000E+00 ,  0.1000000000000E+01 ,  0.0000000000000E+00 ,  0.4365028171351E+06 ,  0.1187500000000E+02 ,  0.9997155020622E+03 ,  0.8459676450000E+03 ,  0.8331178292518E+01
    1, 0.2309000000000E-02 ,  0.3250000000000E+03 , -0.3500000000000E+03 ,  0.0000000000000E+00 ,  0.0000000000000E+00 ,  0.1000000000000E+01 ,  0.0000000000000E+00 ,  0.4405977493075E+06 ,  0.1312500000000E+02 ,  0.9995721278564E+03 ,  0.8360578500000E+03 ,  0.8371581777393E+01
    1, 0.2309000000000E-02 ,  0.3750000000000E+03 , -0.4000000000000E+03 ,  0.0000000000000E+00 ,  0.0000000000000E+00 ,  0.1000000000000E+01 ,  0.0000000000000E+00 ,  0.4447124928646E+06 ,  0.1437500000000E+02 ,  0.9994084722545E+03 ,  0.8257288950000E+03 ,  0.8411986665032E+01
    1, 0.2309000000000E-02 ,  0.4250000000000E+03 , -0.4500000000000E+03 ,  0.0000000000000E+00 ,  0.0000000000000E+00 ,  0.1000000000000E+01 ,  0.0000000000000E+00 ,  0.4488470331724E+06 ,  0.1562500000000E+02 ,  0.9992252167135E+03 ,  0.8149734750000E+03 ,  0.8452330460068E+01
    1, 0.2309000000000E-02 ,  0.4750000000000E+03 , -0.5000000000000E+03 ,  0.0000000000000E+00 ,  0.0000000000000E+00 ,  0.1000000000000E+01 ,  0.0000000000000E+00 ,  0.4530013451899E+06 ,  0.1687500000000E+02 ,  0.9990230009236E+03 ,  0.8037400050000E+03 ,  0.8492633208121E+01
    1, 0.2309000000000E-02 ,  0.5250000000000E+03 , -0.5500000000000E+03 ,  0.0000000000000E+00 ,  0.0000000000000E+00 ,  0.1000000000000E+01 ,  0.0000000000000E+00 ,  0.4571754154631E+06 ,  0.1812500000000E+02 ,  0.9988024257422E+03 ,  0.7919318600000E+03 ,  0.8532922125349E+01
    1, 0.2309000000000E-02 ,  0.5750000000000E+03 , -0.6000000000000E+03 ,  0.0000000000000E+00 ,  0.0000000000000E+00 ,  0.1000000000000E+01 ,  0.0000000000000E+00 ,  0.4613692333538E+06 ,  0.1937500000000E+02 ,  0.9985640558829E+03 ,  0.7794194100000E+03 ,  0.8573181482089E+01
    1, 0.2309000000000E-02 ,  0.6250000000000E+03 , -0.6500000000000E+03 ,  0.0000000000000E+00 ,  0.0000000000000E+00 ,  0.1000000000000E+01 ,  0.0000000000000E+00 ,  0.4655827822199E+06 ,  0.2062500000000E+02 ,  0.9983084223905E+03 ,  0.7661621800000E+03 ,  0.8613402517518E+01
    1, 0.2309000000000E-02 ,  0.6750000000000E+03 , -0.7000000000000E+03 ,  0.0000000000000E+00 ,  0.0000000000000E+00 ,  0.1000000000000E+01 ,  0.0000000000000E+00 ,  0.4698160452580E+06 ,  0.2187500000000E+02 ,  0.9980360249256E+03 ,  0.7520278100000E+03 ,  0.8653593335386E+01
    1, 0.2309000000000E-02 ,  0.7250000000000E+03 , -0.7500000000000E+03 ,  0.0000000000000E+00 ,  0.0000000000000E+00 ,  0.1000000000000E+01 ,  0.0000000000000E+00 ,  0.4740690082739E+06 ,  0.2312500000000E+02 ,  0.9977473338708E+03 ,  0.7367738200000E+03 ,  0.8693756474316E+01
    1, 0.2309000000000E-02 ,  0.7750000000000E+03 , -0.8000000000000E+03 ,  0.0000000000000E+00 ,  0.0000000000000E+00 ,  0.1000000000000E+01 ,  0.0000000000000E+00 ,  0.4783416726772E+06 ,  0.2437500000000E+02 ,  0.9974427922816E+03 ,  0.7200360650000E+03 ,  0.8733953042100E+01
    1, 0.2309000000000E-02 ,  0.8250000000000E+03 , -0.8500000000000E+03 ,  0.0000000000000E+00 ,  0.0000000000000E+00 ,  0.1000000000000E+01 ,  0.0000000000000E+00 ,  0.4826340228034E+06 ,  0.2562500000000E+02 ,  0.9971228176782E+03 ,  0.7015667100000E+03 ,  0.8774052286631E+01
    1, 0.2309000000000E-02 ,  0.8750000000000E+03 , -0.9000000000000E+03 ,  0.0000000000000E+00 ,  0.0000000000000E+00 ,  0.1000000000000E+01 ,  0.0000000000000E+00 ,  0.4869460371439E+06 ,  0.2687500000000E+02 ,  0.9967878037249E+03 ,  0.6808105550000E+03 ,  0.8814161123470E+01
    1, 0.2309000000000E-02 ,  0.9250000000000E+03 , -0.9500000000000E+03 ,  0.0000000000000E+00 ,  0.0000000000000E+00 ,  0.1000000000000E+01 ,  0.0000000000000E+00 ,  0.4912777052904E+06 ,  0.2812500000000E+02 ,  0.9964381217979E+03 ,  0.6565980550000E+03 ,  0.8854217914188E+01
    1, 0.2309000000000E-02 ,  0.9750000000000E+03 , -0.1000000000000E+04 ,  0.0000000000000E+00 ,  0.0000000000000E+00 ,  0.1000000000000E+01 ,  0.0000000000000E+00 ,  0.4956290284720E+06 ,  0.2937500000000E+02 ,  0.9960741224485E+03 ,  0.6264869400000E+03 ,  0.8894331763746E+01
    1, 0.2309000000000E-02 ,  0.1025000000000E+04 , -0.1050000000000E+04 ,  0.0000000000000E+00 ,  0.0000000000000E+00 ,  0.1000000000000E+01 ,  0.0000000000000E+00 ,  0.5000000000000E+06 ,  0.3062500000000E+02 ,  0.9956961367679E+03 ,  0.8934361272632E+01 ,  0.8934361272632E+01
    1, 0.4022481000000E-02 ,  0.0000000000000E+00 ,  0.0000000000000E+00 ,  0.0000000000000E+00 ,  0.0000000000000E+00 ,  0.1000000000000E+01 ,  0.0000000000000E+00 ,  0.2500000000000E+07 ,  0.5000000000000E+01 ,  0.1000796030277E+04 ,  0.8950218000000E+03 ,  0.5815239444432E+02
    1, 0.4022481000000E-02 ,  0.2500000000000E+02 , -0.2500000000000E+02 ,  0.0000000000000E+00 ,  0.0000000000000E+00 ,  0.1000000000000E+01 ,  0.0000000000000E+00 ,  0.4163258695399E+06 ,  0.5625000009058E+01 ,  0.1000100953063E+04 ,  0.8908672399397E+03 ,  0.8128557073680E+01
    1, 0.4022481000000E-02 ,  0.7500000000000E+02 , -0.1000000000000E+03 ,  0.0000000000000E+00 ,  0.0000000000000E+00 ,  0.1000000000000E+01 ,  0.0000000000000E+00 ,  0.4203214928745E+06 ,  0.6875000000001E+01 ,  0.1000070908065E+04 ,  0.8824244950000E+03 ,  0.8169152317547E+01
    1, 0.4022481000000E-02 ,  0.1250000000000E+03 , -0.1500000000000E+03 ,  0.0000000000000E+00 ,  0.0000000000000E+00 ,  0.1000000000000E+01 ,  0.0000000000000E+00 ,  0.4243370159716E+06 ,  0.8125000000000E+01 ,  0.1000016426532E+04 ,  0.8737372050000E+03 ,  0.8209707216206E+01
    1, 0.4022481000000E-02 ,  0.1750000000000E+03 , -0.2000000000000E+03 ,  0.0000000000000E+00 ,  0.0000000000000E+00 ,  0.1000000000000E+01 ,  0.0000000000000E+00 ,  0.4283724258095E+06 ,  0.9375000000000E+01 ,  0.9999384522743E+03 ,  0.8647681550000E+03 ,  0.8250268057517E+01
    1, 0.4022481000000E-02 ,  0.2250000000000E+03 , -0.2500000000000E+03 ,  0.0000000000000E+00 ,  0.0000000000000E+00 ,  0.1000000000000E+01 ,  0.0000000000000E+00 ,  0.4324277032934E+06 ,  0.1062500000000E+02 ,  0.9998378684682E+03 ,  0.8555209150000E+03 ,  0.8290745072391E+01
    1, 0.4022481000000E-02 ,  0.2750000000000E+03 , -0.3000000000000E+03 ,  0.0000000000000E+00 ,  0.0000000000000E+00 ,  0.1000000000000E+01 ,  0.0000000000000E+00 ,  0.4365028171351E+06 ,  0.1187500000000E+02 ,  0.9997155020622E+03 ,  0.8459676450000E+03 ,  0.8331178292518E+01
    1, 0.4022481000000E-02 ,  0.3250000000000E+03 , -0.3500000000000E+03 ,  0.0000000000000E+00 ,  0.0000000000000E+00 ,  0.1000000000000E+01 ,  0.0000000000000E+00 ,  0.4405977493075E+06 ,  0.1312500000000E+02 ,  0.9995721278564E+03 ,  0.8360578500000E+03 ,  0.8371581777393E+01
    1, 0.4022481000000E-02 ,  0.3750000000000E+03 , -0.4000000000000E+03 ,  0.0000000000000E+00 ,  0.0000000000000E+00 ,  0.1000000000000E+01 ,  0.0000000000000E+00 ,  0.4447124928646E+06 ,  0.1437500000000E+02 ,  0.9994084722545E+03 ,  0.8257288950000E+03 ,  0.8411986665032E+01
    1, 0.4022481000000E-02 ,  0.4250000000000E+03 , -0.4500000000000E+03 ,  0.0000000000000E+00 ,  0.0000000000000E+00 ,  0.1000000000000E+01 ,  0.0000000000000E+00 ,  0.4488470331724E+06 ,  0.1562500000000E+02 ,  0.9992252167135E+03 ,  0.8149734750000E+03 ,  0.8452330460068E+01
    1, 0.4022481000000E-02 ,  0.4750000000000E+03 , -0.5000000000000E+03 ,  0.0000000000000E+00 ,  0.0000000000000E+00 ,  0.1000000000000E+01 ,  0.0000000000000E+00 ,  0.4530013451899E+06 ,  0.1687500000000E+02 ,  0.9990230009236E+03 ,  0.8037400050000E+03 ,  0.8492633208121E+01
    1, 0.4022481000000E-02 ,  0.5250000000000E+03 , -0.5500000000000E+03 ,  0.0000000000000E+00 ,  0.0000000000000E+00 ,  0.1000000000000E+01 ,  0.0000000000000E+00 ,  0.4571754154631E+06 ,  0.1812500000000E+02 ,  0.9988024257422E+03 ,  0.7919318600000E+03 ,  0.8532922125349E+01
    1, 0.4022481000000E-02 ,  0.5750000000000E+03 , -0.6000000000000E+03 ,  0.0000000000000E+00 ,  0.0000000000000E+00 ,  0.1000000000000E+01 ,  0.0000000000000E+00 ,  0.4613692333538E+06 ,  0.1937500000000E+02 ,  0.9985640558829E+03 ,  0.7794194100000E+03 ,  0.8573181482089E+01
    1, 0.4022481000000E-02 ,  0.6250000000000E+03 , -0.6500000000000E+03 ,  0.0000000000000E+00 ,  0.0000000000000E+00 ,  0.1000000000000E+01 ,  0.0000000000000E+00 ,  0.4655827822199E+06 ,  0.2062500000000E+02 ,  0.9983084223905E+03 ,  0.7661621800000E+03 ,  0.8613402517518E+01
    1, 0.4022481000000E-02 ,  0.6750000000000E+03 , -0.7000000000000E+03 ,  0.0000000000000E+00 ,  0.0000000000000E+00 ,  0.1000000000000E+01 ,  0.0000000000000E+00 ,  0.4698160452580E+06 ,  0.2187500000000E+02 ,  0.9980360249256E+03 ,  0.7520278100000E+03 ,  0.8653593335386E+01
    1, 0.4022481000000E-02 ,  0.7250000000000E+03 , -0.7500000000000E+03 ,  0.0000000000000E+00 ,  0.0000000000000E+00 ,  0.1000000000000E+01 ,  0.0000000000000E+00 ,  0.4740690082739E+06 ,  0.2312500000000E+02 ,  0.9977473338708E+03 ,  0.7367738200000E+03 ,  0.8693756474316E+01
    1, 0.4022481000000E-02 ,  0.7750000000000E+03 , -0.8000000000000E+03 ,  0.0000000000000E+00 ,  0.0000000000000E+00 ,  0.1000000000000E+01 ,  0.0000000000000E+00 ,  0.4783416726772E+06 ,  0.2437500000000E+02 ,  0.9974427922816E+03 ,  0.7200360650000E+03 ,  0.8733953042100E+01
    1, 0.4022481000000E-02 ,  0.8250000000000E+03 , -0.8500000000000E+03 ,  0.0000000000000E+00 ,  0.0000000000000E+00 ,  0.1000000000000E+01 ,  0.0000000000000E+00 ,  0.4826340228034E+06 ,  0.2562500000000E+02 ,  0.9971228176782E+03 ,  0.7015667100000E+03 ,  0.8774052286631E+01
    1, 0.4022481000000E-02 ,  0.8750000000000E+03 , -0.9000000000000E+03 ,  0.0000000000000E+00 ,  0.0000000000000E+00 ,  0.1000000000000E+01 ,  0.0000000000000E+00 ,  0.4869460371439E+06 ,  0.2687500000000E+02 ,  0.9967878037249E+03 ,  0.6808105550000E+03 ,  0.8814161123470E+01
    1, 0.4022481000000E-02 ,  0.9250000000000E+03 , -0.9500000000000E+03 ,  0.0000000000000E+00 ,  0.0000000000000E+00 ,  0.1000000000000E+01 ,  0.0000000000000E+00 ,  0.4912777052904E+06 ,  0.2812500000000E+02 ,  0.9964381217979E+03 ,  0.6565980550000E+03 ,  0.8854217914188E+01
    1, 0.4022481000000E-02 ,  0.9750000000000E+03 , -0.1000000000000E+04 ,  0.0000000000000E+00 ,  0.0000000000000E+00 ,  0.1000000000000E+01 ,  0.0000000000000E+00 ,  0.4956290284720E+06 ,  0.2937500000000E+02 ,  0.9960741224485E+03 ,  0.6264869400000E+03 ,  0.8894331763746E+01
    1, 0.4022481000000E-02 ,  0.1025000000000E+04 , -0.1050000000000E+04 ,  0.0000000000000E+00 ,  0.0000000000000E+00 ,  0.1000000000000E+01 ,  0.0000000000000E+00 ,  0.5000000000000E+06 ,  0.3062500000000E+02 ,  0.9956961367679E+03 ,  0.8934361272632E+01 ,  0.8934361272632E+01
    1, 0.6265427629000E-02 ,  0.0000000000000E+00 ,  0.0000000000000E+00 ,  0.0000000000000E+00 ,  0.0000000000000E+00 ,  0.1000000000000E+01 ,  0.0000000000000E+00 ,  0.2500000000000E+07 ,  0.5000000000000E+01 ,  0.1000796030277E+04 ,  0.8950218000000E+03 ,  0.5815239444432E+02
    1, 0.6265427629000E-02 ,  0.2500000000000E+02 , -0.2500000000000E+02 ,  0.0000000000000E+00 ,  0.0000000000000E+00 ,  0.1000000000000E+01 ,  0.0000000000000E+00 ,  0.4163258773627E+06 ,  0.5625000024535E+01 ,  0.1000100953066E+04 ,  0.8908672398367E+03 ,  0.8128557231184E+01
    1, 0.6265427629000E-02 ,  0.7500000000000E+02 , -0.1000000000000E+03 ,  0.0000000000000E+00 ,  0.0000000000000E+00 ,  0.1000000000000E+01 ,  0.0000000000000E+00 ,  0.4203214928761E+06 ,  0.6875000000008E+01 ,  0.1000070908065E+04 ,  0.8824244949999E+03 ,  0.8169152317580E+01
    1, 0.6265427629000E-02 ,  0.1250000000000E+03 , -0.1500000000000E+03 ,  0.0000000000000E+00 ,  0.0000000000000E+00 ,  0.1000000000000E+01 ,  0.0000000000000E+00 ,  0.4243370159716E+06 ,  0.8125000000000E+01 ,  0.1000016426532E+04 ,  0.8737372050000E+03 ,  0.8209707216206E+01
    1, 0.6265427629000E-02 ,  0.1750000000000E+03 , -0.2000000000000E+03 ,  0.0000000000000E+00 ,  0.0000000000000E+00 ,  0.1000000000000E+01 ,  0.0000000000000E+00 ,  0.4283724258095E+06 ,  0.9375000000000E+01 ,  0.9999384522743E+03 ,  0.8647681550000E+03 ,  0.8250268057517E+01
    1, 0.6265427629000E-02 ,  0.2250000000000E+03 , -0.2500000000000E+03 ,  0.0000000000000E+00 ,  0.0000000000000E+00 ,  0.1000000000000E+01 ,  0.0000000000000E+00 ,  0.4324277032934E+06 ,  0.1062500000000E+02 ,  0.9998378684682E+03 ,  0.8555209150000E+03 ,  0.8290745072391E+01
    1, 0.6265427629000E-02 ,  0.2750000000000E+03 , -0.3000000000000E+03 ,  0.0000000000000E+00 ,  0.0000000000000E+00 ,  0.1000000000000E+01 ,  0.0000000000000E+00 ,  0.4365028171351E+06 ,  0.1187500000000E+02 ,  0.9997155020622E+03 ,  0.8459676450000E+03 ,  0.8331178292518E+01
    1, 0.6265427629000E-02 ,  0.3250000000000E+03 , -0.3500000000000E+03 ,  0.0000000000000E+00 ,  0.0000000000000E+00 ,  0.1000000000000E+01 ,  0.0000000000000E+00 ,  0.4405977493075E+06 ,  0.1312500000000E+02 ,  0.9995721278564E+03 ,  0.8360578500000E+03 ,  0.8371581777393E+01
    1, 0.6265427629000E-02 ,  0.3750000000000E+03 , -0.4000000000000E+03 ,  0.0000000000000E+00 ,  0.0000000000000E+00 ,  0.1000000000000E+01 ,  0.0000000000000E+00 ,  0.4447124928646E+06 ,  0.1437500000000E+02 ,  0.9994084722545E+03 ,  0.8257288950000E+03 ,  0.8411986665032E+01
    1, 0.6265427629000E-02 ,  0.4250000000000E+03 , -0.4500000000000E+03 ,  0.0000000000000E+00 ,  0.0000000000000E+00 ,  0.1000000000000E+01 ,  0.0000000000000E+00 ,  0.4488470331724E+06 ,  0.1562500000000E+02 ,  0.9992252167135E+03 ,  0.8149734750000E+03 ,  0.8452330460068E+01
    1, 0.6265427629000E-02 ,  0.4750000000000E+03 , -0.5000000000000E+03 ,  0.0000000000000E+00 ,  0.0000000000000E+00 ,  0.1000000000000E+01 ,  0.0000000000000E+00 ,  0.4530013451899E+06 ,  0.1687500000000E+02 ,  0.9990230009236E+03 ,  0.8037400050000E+03 ,  0.8492633208121E+01
    1, 0.6265427629000E-02 ,  0.5250000000000E+03 , -0.5500000000000E+03 ,  0.0000000000000E+00 ,  0.0000000000000E+00 ,  0.1000000000000E+01 ,  0.0000000000000E+00 ,  0.4571754154631E+06 ,  0.1812500000000E+02 ,  0.9988024257422E+03 ,  0.7919318600000E+03 ,  0.8532922125349E+01
    1, 0.6265427629000E-02 ,  0.5750000000000E+03 , -0.6000000000000E+03 ,  0.0000000000000E+00 ,  0.0000000000000E+00 ,  0.1000000000000E+01 ,  0.0000000000000E+00 ,  0.4613692333538E+06 ,  0.1937500000000E+02 ,  0.9985640558829E+03 ,  0.7794194100000E+03 ,  0.8573181482089E+01
    1, 0.6265427629000E-02 ,  0.6250000000000E+03 , -0.6500000000000E+03 ,  0.0000000000000E+00 ,  0.0000000000000E+00 ,  0.1000000000000E+01 ,  0.0000000000000E+00 ,  0.4655827822199E+06 ,  0.2062500000000E+02 ,  0.9983084223905E+03 ,  0.7661621800000E+03 ,  0.8613402517518E+01
    1, 0.6265427629000E-02 ,  0.6750000000000E+03 , -0.7000000000000E+03 ,  0.0000000000000E+00 ,  0.0000000000000E+00 ,  0.1000000000000E+01 ,  0.0000000000000E+00 ,  0.4698160452580E+06 ,  0.2187500000000E+02 ,  0.9980360249256E+03 ,  0.7520278100000E+03 ,  0.8653593335386E+01
    1, 0.6265427629000E-02 ,  0.7250000000000E+03 , -0.7500000000000E+03 ,  0.0000000000000E+00 ,  0.0000000000000E+00 ,  0.1000000000000E+01 ,  0.0000000000000E+00 ,  0.4740690082739E+06 ,  0.2312500000000E+02 ,  0.9977473338708E+03 ,  0.7367738200000E+03 ,  0.8693756474316E+01
    1, 0.6265427629000E-02 ,  0.7750000000000E+03 , -0.8000000000000E+03 ,  0.0000000000000E+00 ,  0.0000000000000E+00 ,  0.1000000000000E+01 ,  0.0000000000000E+00 ,  0.4783416726772E+06 ,  0.2437500000000E+02 ,  0.9974427922816E+03 ,  0.7200360650000E+03 ,  0.8733953042100E+01
    1, 0.6265427629000E-02 ,  0.8250000000000E+03 , -0.8500000000000E+03 ,  0.0000000000000E+00 ,  0.0000000000000E+00 ,  0.1000000000000E+01 ,  0.0000000000000E+00 ,  0.4826340228034E+06 ,  0.2562500000000E+02 ,  0.9971228176782E+03 ,  0.7015667100000E+03 ,  0.8774052286631E+01
    1, 0.6265427629000E-02 ,  0.8750000000000E+03 , -0.9000000000000E+03 ,  0.0000000000000E+00 ,  0.0000000000000E+00 ,  0.1000000000000E+01 ,  0.0000000000000E+00 ,  0.4869460371439E+06 ,  0.2687500000000E+02 ,  0.9967878037249E+03 ,  0.6808105550000E+03 ,  0.8814161123470E+01
    1, 0.6265427629000E-02 ,  0.9250000000000E+03 , -0.9500000000000E+03 ,  0.0000000000000E+00 ,  0.0000000000000E+00 ,  0.1000000000000E+01 ,  0.0000000000000E+00 ,  0.4912777052904E+06 ,  0.2812500000000E+02 ,  0.9964381217979E+03 ,  0.6565980550000E+03 ,  0.8854217914188E+01
    1, 0.6265427629000E-02 ,  0.9750000000000E+03 , -0.1000000000000E+04 ,  0.0000000000000E+00 ,  0.0000000000000E+00 ,  0.1000000000000E+01 ,  0.0000000000000E+00 ,  0.4956290284720E+06 ,  0.2937500000000E+02 ,  0.9960741224485E+03 ,  0.6264869400000E+03 ,  0.8894331763746E+01
    1, 0.6265427629000E-02 ,  0.1025000000000E+04 , -0.1050000000000E+04 ,  0.0000000000000E+00 ,  0.0000000000000E+00 ,  0.1000000000000E+01 ,  0.0000000000000E+00 ,  0.5000000000000E+06 ,  0.3062500000000E+02 ,  0.9956961367679E+03 ,  0.8934361272632E+01 ,  0.8934361272632E+01
    1, 0.9201444766361E-02 ,  0.0000000000000E+00 ,  0.0000000000000E+00 ,  0.0000000000000E+00 ,  0.0000000000000E+00 ,  0.1000000000000E+01 ,  0.0000000000000E+00 ,  0.2500000000000E+07 ,  0.5000000000000E+01 ,  0.1000796030277E+04 ,  0.8950218000000E+03 ,  0.5815239444432E+02
    1, 0.9201444766361E-02 ,  0.2500000000000E+02 , -0.2500000000000E+02 ,  0.0000000000000E+00 ,  0.0000000000000E+00 ,  0.1000000000000E+01 ,  0.0000000000000E+00 ,  0.4163258933088E+06 ,  0.5625000055984E+01 ,  0.1000100953071E+04 ,  0.8908672396274E+03 ,  0.8128557552248E+01
    1, 0.9201444766361E-02 ,  0.7500000000000E+02 , -0.1000000000000E+03 ,  0.0000000000000E+00 ,  0.0000000000000E+00 ,  0.1000000000000E+01 ,  0.0000000000000E+00 ,  0.4203214928832E+06 ,  0.6875000000036E+01 ,  0.1000070908065E+04 ,  0.8824244949998E+03 ,  0.8169152317722E+01
    1, 0.9201444766361E-02 ,  0.1250000000000E+03 , -0.1500000000000E+03 ,  0.0000000000000E+00 ,  0.0000000000000E+00 ,  0.1000000000000E+01 ,  0.0000000000000E+00 ,  0.4243370159716E+06 ,  0.8125000000000E+01 ,  0.1000016426532E+04 ,  0.8737372050000E+03 ,  0.8209707216206E+01
    1, 0.9201444766361E-02 ,  0.1750000000000E+03 , -0.2000000000000E+03 ,  0.0000000000000E+00 ,  0.0000000000000E+00 ,  0.1000000000000E+01 ,  0.0000000000000E+00 ,  0.4283724258095E+06 ,  0.9375000000000E+01 ,  0.9999384522743E+03 ,  0.8647681550000E+03 ,  0.8250268057517E+01
    1, 0.9201444766361E-02 ,  0.2250000000000E+03 , -0.2500000000000E+03 ,  0.0000000000000E+00 ,  0.0000000000000E+00 ,  0.1000000000000E+01 ,  0.0000000000000E+00 ,  0.4324277032934E+06 ,  0.1062500000000E+02 ,  0.9998378684682E+03 ,  0.8555209150000E+03 ,  0.8290745072391E+01
    1, 0.9201444766361E-02 ,  0.2750000000000E+03 , -0.3000000000000E+03 ,  0.0000000000000E+00 ,  0.0000000000000E+00 ,  0.1000000000000E+01 ,  0.0000000000000E+00 ,  0.4365028171351E+06 ,  0.1187500000000E+02 ,  0.9997155020622E+03 ,  0.8459676450000E+03 ,  0.8331178292518E+01
    1, 0.9201444766361E-02 ,  0.3250000000000E+03 , -0.3500000000000E+03 ,  0.0000000000000E+00 ,  0.0000000000000E+00 ,  0.1000000000000E+01 ,  0.0000000000000E+00 ,  0.4405977493075E+06 ,  0.1312500000000E+02 ,  0.9995721278564E+03 ,  0.8360578500000E+03 ,  0.8371581777393E+01
    1, 0.9201444766361E-02 ,  0.3750000000000E+03 , -0.4000000000000E+03 ,  0.0000000000000E+00 ,  0.0000000000000E+00 ,  0.1000000000000E+01 ,  0.0000000000000E+00 ,  0.4447124928646E+06 ,  0.1437500000000E+02 ,  0.9994084722545E+03 ,  0.8257288950000E+03 ,  0.8411986665032E+01
    1, 0.9201444766361E-02 ,  0.4250000000000E+03 , -0.4500000000000E+03 ,  0.0000000000000E+00 ,  0.0000000000000E+00 ,  0.1000000000000E+01 ,  0.0000000000000E+00 ,  0.4488470331724E+06 ,  0.1562500000000E+02 ,  0.9992252167135E+03 ,  0.8149734750000E+03 ,  0.8452330460068E+01
    1, 0.9201444766361E-02 ,  0.4750000000000E+03 , -0.5000000000000E+03 ,  0.0000000000000E+00 ,  0.0000000000000E+00 ,  0.1000000000000E+01 ,  0.0000000000000E+00 ,  0.4530013451899E+06 ,  0.1687500000000E+02 ,  0.9990230009236E+03 ,  0.8037400050000E+03 ,  0.8492633208121E+01
    1, 0.9201444766361E-02 ,  0.5250000000000E+03 , -0.5500000000000E+03 ,  0.0000000000000E+00 ,  0.0000000000000E+00 ,  0.1000000000000E+01 ,  0.0000000000000E+00 ,  0.4571754154631E+06 ,  0.1812500000000E+02 ,  0.9988024257422E+03 ,  0.7919318600000E+03 ,  0.8532922125349E+01
    1, 0.9201444766361E-02 ,  0.5750000000000E+03 , -0.6000000000000E+03 ,  0.0000000000000E+00 ,  0.0000000000000E+00 ,  0.1000000000000E+01 ,  0.0000000000000E+00 ,  0.4613692333538E+06 ,  0.1937500000000E+02 ,  0.9985640558829E+03 ,  0.7794194100000E+03 ,  0.8573181482089E+01
    1, 0.9201444766361E-02 ,  0.6250000000000E+03 , -0.6500000000000E+03 ,  0.0000000000000E+00 ,  0.0000000000000E+00 ,  0.1000000000000E+01 ,  0.0000000000000E+00 ,  0.4655827822199E+06 ,  0.2062500000000E+02 ,  0.9983084223905E+03 ,  0.7661621800000E+03 ,  0.8613402517518E+01
    1, 0.9201444766361E-02 ,  0.6750000000000E+03 , -0.7000000000000E+03 ,  0.0000000000000E+00 ,  0.0000000000000E+00 ,  0.1000000000000E+01 ,  0.0000000000000E+00 ,  0.4698160452580E+06 ,  0.2187500000000E+02 ,  0.9980360249256E+03 ,  0.7520278100000E+03 ,  0.8653593335386E+01
    1, 0.9201444766361E-02 ,  0.7250000000000E+03 , -0.7500000000000E+03 ,  0.0000000000000E+00 ,  0.0000000000000E+00 ,  0.1000000000000E+01 ,  0.0000000000000E+00 ,  0.4740690082739E+06 ,  0.2312500000000E+02 ,  0.9977473338708E+03 ,  0.7367738200000E+03 ,  0.8693756474316E+01
    1, 0.9201444766361E-02 ,  0.7750000000000E+03 , -0.8000000000000E+03 ,  0.0000000000000E+00 ,  0.0000000000000E+00 ,  0.1000000000000E+01 ,  0.0000000000000E+00 ,  0.4783416726772E+06 ,  0.2437500000000E+02 ,  0.9974427922816E+03 ,  0.7200360650000E+03 ,  0.8733953042100E+01
    1, 0.9201444766361E-02 ,  0.8250000000000E+03 , -0.8500000000000E+03 ,  0.0000000000000E+00 ,  0.0000000000000E+00 ,  0.1000000000000E+01 ,  0.0000000000000E+00 ,  0.4826340228034E+06 ,  0.2562500000000E+02 ,  0.9971228176782E+03 ,  0.7015667100000E+03 ,  0.8774052286631E+01