 Title="Wellbore flow"
Variables=WellID,Time(s),Dis(m),cumDepth(m),q_aqueous(kg/s),q_liquid(kg/s),q_gas(kg/s),V_aqueous(m/s),V_liquid(m/s),V_gas(m/s)
ZONE T="w_Injection_1km_5bar_1kg_ 1" I=    21 J=1 K=
    1, 0.1000000000000E-02 ,  0.1000000000000E-14 , -0.1000000000000E-14 ,  0.0000000000000E+00 ,  0.0000000000000E+00 ,  0.2190434829188E-01 ,  0.0000000000000E+00 ,  0.0000000000000E+00 ,  0.9864162142408E-02 , -0.9864162142408E-02 , 
    1, 0.1000000000000E-02 ,  0.5000000000000E+02 , -0.5000000000000E+02 ,  0.0000000000000E+00 ,  0.0000000000000E+00 ,  0.3093268459874E-08 ,  0.0000000000000E+00 ,  0.0000000000000E+00 ,  0.9965506519178E-08 , -0.9965506519178E-08 , 
    1, 0.1000000000000E-02 ,  0.1000000000000E+03 , -0.1500000000000E+03 ,  0.0000000000000E+00 ,  0.0000000000000E+00 ,  0.9269010164529E-15 ,  0.0000000000000E+00 ,  0.0000000000000E+00 ,  0.2971338953209E-14 , -0.2971338953209E-14 , 
    1, 0.1000000000000E-02 ,  0.1500000000000E+03 , -0.2000000000000E+03 ,  0.0000000000000E+00 ,  0.0000000000000E+00 ,  0.4409144825824E-15 ,  0.0000000000000E+00 ,  0.0000000000000E+00 ,  0.1406444266262E-14 , -0.1406444266262E-14 , 
    1, 0.1000000000000E-02 ,  0.2000000000000E+03 , -0.2500000000000E+03 ,  0.0000000000000E+00 ,  0.0000000000000E+00 ,  0.5002345938583E-15 ,  0.0000000000000E+00 ,  0.0000000000000E+00 ,  0.1587820828684E-14 , -0.1587820828684E-14 , 
    1, 0.1000000000000E-02 ,  0.2500000000000E+03 , -0.3000000000000E+03 ,  0.0000000000000E+00 ,  0.0000000000000E+00 ,  0.3076341218429E-15 ,  0.0000000000000E+00 ,  0.0000000000000E+00 ,  0.9717102295692E-15 , -0.9717102295692E-15 , 
    1, 0.1000000000000E-02 ,  0.3000000000000E+03 , -0.3500000000000E+03 ,  0.0000000000000E+00 ,  0.0000000000000E+00 ,  0.7387442736278E-15 ,  0.0000000000000E+00 ,  0.0000000000000E+00 ,  0.2322113966163E-14 , -0.2322113966163E-14 , 
    1, 0.1000000000000E-02 ,  0.3500000000000E+03 , -0.4000000000000E+03 ,  0.0000000000000E+00 ,  0.0000000000000E+00 ,  0.4585080082434E-15 ,  0.0000000000000E+00 ,  0.0000000000000E+00 ,  0.1434284262517E-14 , -0.1434284262517E-14 , 
    1, 0.1000000000000E-02 ,  0.4000000000000E+03 , -0.4500000000000E+03 ,  0.0000000000000E+00 ,  0.0000000000000E+00 ,  0.9170184966573E-15 ,  0.0000000000000E+00 ,  0.0000000000000E+00 ,  0.2854797790032E-14 , -0.2854797790032E-14 , 
    1, 0.1000000000000E-02 ,  0.4500000000000E+03 , -0.5000000000000E+03 ,  0.0000000000000E+00 ,  0.0000000000000E+00 ,  0.1104026089614E-14 ,  0.0000000000000E+00 ,  0.0000000000000E+00 ,  0.3420571713273E-14 , -0.3420571713273E-14 , 
    1, 0.1000000000000E-02 ,  0.5000000000000E+03 , -0.5500000000000E+03 ,  0.0000000000000E+00 ,  0.0000000000000E+00 ,  0.6763353233756E-15 ,  0.0000000000000E+00 ,  0.0000000000000E+00 ,  0.2085525644076E-14 , -0.2085525644076E-14 , 
    1, 0.1000000000000E-02 ,  0.5500000000000E+03 , -0.6000000000000E+03 ,  0.0000000000000E+00 ,  0.0000000000000E+00 ,  0.1125198644064E-14 ,  0.0000000000000E+00 ,  0.0000000000000E+00 ,  0.3453243872015E-14 , -0.3453243872015E-14 , 
    1, 0.1000000000000E-02 ,  0.6000000000000E+03 , -0.6500000000000E+03 ,  0.0000000000000E+00 ,  0.0000000000000E+00 ,  0.8435069502281E-15 ,  0.0000000000000E+00 ,  0.0000000000000E+00 ,  0.2576573168799E-14 , -0.2576573168799E-14 , 
    1, 0.1000000000000E-02 ,  0.6500000000000E+03 , -0.7000000000000E+03 ,  0.0000000000000E+00 ,  0.0000000000000E+00 ,  0.9087547671478E-15 ,  0.0000000000000E+00 ,  0.0000000000000E+00 ,  0.2762916696799E-14 , -0.2762916696799E-14 , 
    1, 0.1000000000000E-02 ,  0.7000000000000E+03 , -0.7500000000000E+03 ,  0.0000000000000E+00 ,  0.0000000000000E+00 ,  0.9987405045371E-15 ,  0.0000000000000E+00 ,  0.0000000000000E+00 ,  0.3022400503088E-14 , -0.3022400503088E-14 , 
    1, 0.1000000000000E-02 ,  0.7500000000000E+03 , -0.8000000000000E+03 ,  0.0000000000000E+00 ,  0.0000000000000E+00 ,  0.1486537850288E-14 ,  0.0000000000000E+00 ,  0.0000000000000E+00 ,  0.4477796295655E-14 , -0.4477796295655E-14 , 
    1, 0.1000000000000E-02 ,  0.8000000000000E+03 , -0.8500000000000E+03 ,  0.0000000000000E+00 ,  0.0000000000000E+00 ,  0.1106411194516E-14 ,  0.0000000000000E+00 ,  0.0000000000000E+00 ,  0.3317428263646E-14 , -0.3317428263646E-14 , 
    1, 0.1000000000000E-02 ,  0.8500000000000E+03 , -0.9000000000000E+03 ,  0.0000000000000E+00 ,  0.0000000000000E+00 ,  0.9456234231900E-15 ,  0.0000000000000E+00 ,  0.0000000000000E+00 ,  0.2822369269720E-14 , -0.2822369269720E-14 , 
    1, 0.1000000000000E-02 ,  0.9000000000000E+03 , -0.9500000000000E+03 ,  0.0000000000000E+00 ,  0.0000000000000E+00 ,  0.1344590766364E-14 ,  0.0000000000000E+00 ,  0.0000000000000E+00 ,  0.3994891340063E-14 , -0.3994891340063E-14 , 
    1, 0.1000000000000E-02 ,  0.9500000000000E+03 , -0.1000000000000E+04 ,  0.0000000000000E+00 ,  0.0000000000000E+00 ,  0.9545309379413E-15 ,  0.0000000000000E+00 ,  0.0000000000000E+00 ,  0.2823160926435E-14 , -0.2823160926435E-14 , 
    1, 0.1000000000000E-02 ,  0.1000000000000E+04 , -0.1050000000000E+04 ,  0.0000000000000E+00 ,  0.0000000000000E+00 ,  0.6112076941104E-15 ,  0.0000000000000E+00 ,  0.0000000000000E+00 ,  0.3869518974287E-14 , -0.3869518974287E-14 , 
    1, 0.2309000000000E-02 ,  0.1000000000000E-14 , -0.1000000000000E-14 ,  0.0000000000000E+00 ,  0.0000000000000E+00 ,  0.4212113926165E+01 ,  0.0000000000000E+00 ,  0.0000000000000E+00 ,  0.1898637016152E+01 , -0.1898637016152E+01 , 
    1, 0.2309000000000E-02 ,  0.5000000000000E+02 , -0.5000000000000E+02 ,  0.0000000000000E+00 ,  0.0000000000000E+00 ,  0.1443499884844E-03 ,  0.0000000000000E+00 ,  0.0000000000000E+00 ,  0.4648836121650E-03 , -0.4648836121650E-03 , 
    1, 0.2309000000000E-02 ,  0.1000000000000E+03 , -0.1500000000000E+03 ,  0.0000000000000E+00 ,  0.0000000000000E+00 ,  0.4969173936277E-08 ,  0.0000000000000E+00 ,  0.0000000000000E+00 ,  0.1592953254032E-07 , -0.1592953254032E-07 , 
    1, 0.2309000000000E-02 ,  0.1500000000000E+03 , -0.2000000000000E+03 ,  0.0000000000000E+00 ,  0.0000000000000E+00 ,  0.2545224297337E-12 ,  0.0000000000000E+00 ,  0.0000000000000E+00 ,  0.8118844494225E-12 , -0.8118844494225E-12 , 
    1, 0.2309000000000E-02 ,  0.2000000000000E+03 , -0.2500000000000E+03 ,  0.0000000000000E+00 ,  0.0000000000000E+00 ,  0.9408251535016E-13 ,  0.0000000000000E+00 ,  0.0000000000000E+00 ,  0.2986322403969E-12 , -0.2986322403969E-12 , 
    1, 0.2309000000000E-02 ,  0.2500000000000E+03 , -0.3000000000000E+03 ,  0.0000000000000E+00 ,  0.0000000000000E+00 ,  0.5810944337844E-13 ,  0.0000000000000E+00 ,  0.0000000000000E+00 ,  0.1835477164469E-12 , -0.1835477164469E-12 , 
    1, 0.2309000000000E-02 ,  0.3000000000000E+03 , -0.3500000000000E+03 ,  0.0000000000000E+00 ,  0.0000000000000E+00 ,  0.1401442515427E-12 ,  0.0000000000000E+00 ,  0.0000000000000E+00 ,  0.4405190475272E-12 , -0.4405190475272E-12 , 
    1, 0.2309000000000E-02 ,  0.3500000000000E+03 , -0.4000000000000E+03 ,  0.0000000000000E+00 ,  0.0000000000000E+00 ,  0.8735508809104E-13 ,  0.0000000000000E+00 ,  0.0000000000000E+00 ,  0.2732602830205E-12 , -0.2732602830205E-12 , 
    1, 0.2309000000000E-02 ,  0.4000000000000E+03 , -0.4500000000000E+03 ,  0.0000000000000E+00 ,  0.0000000000000E+00 ,  0.1754575944266E-12 ,  0.0000000000000E+00 ,  0.0000000000000E+00 ,  0.5462223004654E-12 , -0.5462223004654E-12 , 
    1, 0.2309000000000E-02 ,  0.4500000000000E+03 , -0.5000000000000E+03 ,  0.0000000000000E+00 ,  0.0000000000000E+00 ,  0.2121380223135E-12 ,  0.0000000000000E+00 ,  0.0000000000000E+00 ,  0.6572610242292E-12 , -0.6572610242292E-12 , 
    1, 0.2309000000000E-02 ,  0.5000000000000E+03 , -0.5500000000000E+03 ,  0.0000000000000E+00 ,  0.0000000000000E+00 ,  0.1305081858617E-12 ,  0.0000000000000E+00 ,  0.0000000000000E+00 ,  0.4024308046161E-12 , -0.4024308046161E-12 , 
    1, 0.2309000000000E-02 ,  0.5500000000000E+03 , -0.6000000000000E+03 ,  0.0000000000000E+00 ,  0.0000000000000E+00 ,  0.2180385827786E-12 ,  0.0000000000000E+00 ,  0.0000000000000E+00 ,  0.6691621997729E-12 , -0.6691621997729E-12 , 
    1, 0.2309000000000E-02 ,  0.6000000000000E+03 , -0.6500000000000E+03 ,  0.0000000000000E+00 ,  0.0000000000000E+00 ,  0.1641394559393E-12 ,  0.0000000000000E+00 ,  0.0000000000000E+00 ,  0.5013797669362E-12 , -0.5013797669362E-12 , 
    1, 0.2309000000000E-02 ,  0.6500000000000E+03 , -0.7000000000000E+03 ,  0.0000000000000E+00 ,  0.0000000000000E+00 ,  0.1775753489306E-12 ,  0.0000000000000E+00 ,  0.0000000000000E+00 ,  0.5398881130937E-12 , -0.5398881130937E-12 , 
    1, 0.2309000000000E-02 ,  0.7000000000000E+03 , -0.7500000000000E+03 ,  0.0000000000000E+00 ,  0.0000000000000E+00 ,  0.1959715889107E-12 ,  0.0000000000000E+00 ,  0.0000000000000E+00 ,  0.5930515746823E-12 , -0.5930515746823E-12 , 
    1, 0.2309000000000E-02 ,  0.7500000000000E+03 , -0.8000000000000E+03 ,  0.0000000000000E+00 ,  0.0000000000000E+00 ,  0.2928956085977E-12 ,  0.0000000000000E+00 ,  0.0000000000000E+00 ,  0.8822694093783E-12 , -0.8822694093783E-12 , 
    1, 0.2309000000000E-02 ,  0.8000000000000E+03 , -0.8500000000000E+03 ,  0.0000000000000E+00 ,  0.0000000000000E+00 ,  0.2188981551755E-12 ,  0.0000000000000E+00 ,  0.0000000000000E+00 ,  0.6563372916313E-12 , -0.6563372916313E-12 , 
    1, 0.2309000000000E-02 ,  0.8500000000000E+03 , -0.9000000000000E+03 ,  0.0000000000000E+00 ,  0.0000000000000E+00 ,  0.1878558385119E-12 ,  0.0000000000000E+00 ,  0.0000000000000E+00 ,  0.5606867731395E-12 , -0.5606867731395E-12 , 
    1, 0.2309000000000E-02 ,  0.9000000000000E+03 , -0.9500000000000E+03 ,  0.0000000000000E+00 ,  0.0000000000000E+00 ,  0.2682064169230E-12 ,  0.0000000000000E+00 ,  0.0000000000000E+00 ,  0.7968636399405E-12 , -0.7968636399405E-12 , 
    1, 0.2309000000000E-02 ,  0.9500000000000E+03 , -0.1000000000000E+04 ,  0.0000000000000E+00 ,  0.0000000000000E+00 ,  0.1911762378782E-12 ,  0.0000000000000E+00 ,  0.0000000000000E+00 ,  0.5654308974046E-12 , -0.5654308974046E-12 , 
    1, 0.2309000000000E-02 ,  0.1000000000000E+04 , -0.1050000000000E+04 ,  0.0000000000000E+00 ,  0.0000000000000E+00 ,  0.1229100250186E-12 ,  0.0000000000000E+00 ,  0.0000000000000E+00 ,  0.7781359405690E-12 , -0.7781359405690E-12 , 
    1, 0.4022481000000E-02 ,  0.1000000000000E-14 , -0.1000000000000E-14 ,  0.0000000000000E+00 ,  0.0000000000000E+00 ,  0.9678572626884E+01 ,  0.0000000000000E+00 ,  0.0000000000000E+00 ,  0.4375166982663E+01 , -0.4375166982663E+01 , 
    1, 0.4022481000000E-02 ,  0.5000000000000E+02 , -0.5000000000000E+02 ,  0.0000000000000E+00 ,  0.0000000000000E+00 ,  0.8997954128923E-03 ,  0.0000000000000E+00 ,  0.0000000000000E+00 ,  0.2894726703622E-02 , -0.2894726703622E-02 , 
    1, 0.4022481000000E-02 ,  0.1000000000000E+03 , -0.1500000000000E+03 ,  0.0000000000000E+00 ,  0.0000000000000E+00 ,  0.6454262411794E-07 ,  0.0000000000000E+00 ,  0.0000000000000E+00 ,  0.2069023428582E-06 , -0.2069023428582E-06 , 
    1, 0.4022481000000E-02 ,  0.1500000000000E+03 , -0.2000000000000E+03 ,  0.0000000000000E+00 ,  0.0000000000000E+00 ,  0.4414193869614E-11 ,  0.0000000000000E+00 ,  0.0000000000000E+00 ,  0.1408054827702E-10 , -0.1408054827702E-10 , 
    1, 0.4022481000000E-02 ,  0.2000000000000E+03 , -0.2500000000000E+03 ,  0.0000000000000E+00 ,  0.0000000000000E+00 ,  0.2168866470935E-12 ,  0.0000000000000E+00 ,  0.0000000000000E+00 ,  0.6884312679422E-12 , -0.6884312679422E-12 , 
    1, 0.4022481000000E-02 ,  0.2500000000000E+03 , -0.3000000000000E+03 ,  0.0000000000000E+00 ,  0.0000000000000E+00 ,  0.1337718643246E-12 ,  0.0000000000000E+00 ,  0.0000000000000E+00 ,  0.4225392430919E-12 , -0.4225392430919E-12 , 
    1, 0.4022481000000E-02 ,  0.3000000000000E+03 , -0.3500000000000E+03 ,  0.0000000000000E+00 ,  0.0000000000000E+00 ,  0.3226257053179E-12 ,  0.0000000000000E+00 ,  0.0000000000000E+00 ,  0.1014117716924E-11 , -0.1014117716924E-11 , 
    1, 0.4022481000000E-02 ,  0.3500000000000E+03 , -0.4000000000000E+03 ,  0.0000000000000E+00 ,  0.0000000000000E+00 ,  0.2011024901006E-12 ,  0.0000000000000E+00 ,  0.0000000000000E+00 ,  0.6290798230750E-12 , -0.6290798230750E-12 , 
    1, 0.4022481000000E-02 ,  0.4000000000000E+03 , -0.4500000000000E+03 ,  0.0000000000000E+00 ,  0.0000000000000E+00 ,  0.4039307640047E-12 ,  0.0000000000000E+00 ,  0.0000000000000E+00 ,  0.1257488978259E-11 , -0.1257488978259E-11 , 
    1, 0.4022481000000E-02 ,  0.4500000000000E+03 , -0.5000000000000E+03 ,  0.0000000000000E+00 ,  0.0000000000000E+00 ,  0.4883809864264E-12 ,  0.0000000000000E+00 ,  0.0000000000000E+00 ,  0.1513136512974E-11 , -0.1513136512974E-11 , 
    1, 0.4022481000000E-02 ,  0.5000000000000E+03 , -0.5500000000000E+03 ,  0.0000000000000E+00 ,  0.0000000000000E+00 ,  0.3004577480419E-12 ,  0.0000000000000E+00 ,  0.0000000000000E+00 ,  0.9264817566755E-12 , -0.9264817566755E-12 , 
    1, 0.4022481000000E-02 ,  0.5500000000000E+03 , -0.6000000000000E+03 ,  0.0000000000000E+00 ,  0.0000000000000E+00 ,  0.5019776512489E-12 ,  0.0000000000000E+00 ,  0.0000000000000E+00 ,  0.1540573530913E-11 , -0.1540573530913E-11 , 
    1, 0.4022481000000E-02 ,  0.6000000000000E+03 , -0.6500000000000E+03 ,  0.0000000000000E+00 ,  0.0000000000000E+00 ,  0.3778934382914E-12 ,  0.0000000000000E+00 ,  0.0000000000000E+00 ,  0.1154311880303E-11 , -0.1154311880303E-11 , 
    1, 0.4022481000000E-02 ,  0.6500000000000E+03 , -0.7000000000000E+03 ,  0.0000000000000E+00 ,  0.0000000000000E+00 ,  0.4088314720592E-12 ,  0.0000000000000E+00 ,  0.0000000000000E+00 ,  0.1242983631189E-11 , -0.1242983631189E-11 , 
    1, 0.4022481000000E-02 ,  0.7000000000000E+03 , -0.7500000000000E+03 ,  0.0000000000000E+00 ,  0.0000000000000E+00 ,  0.4511905525865E-12 ,  0.0000000000000E+00 ,  0.0000000000000E+00 ,  0.1365398266047E-11 , -0.1365398266047E-11 , 
    1, 0.4022481000000E-02 ,  0.7500000000000E+03 , -0.8000000000000E+03 ,  0.0000000000000E+00 ,  0.0000000000000E+00 ,  0.6743493428832E-12 ,  0.0000000000000E+00 ,  0.0000000000000E+00 ,  0.2031296403892E-11 , -0.2031296403892E-11 , 
    1, 0.4022481000000E-02 ,  0.8000000000000E+03 , -0.8500000000000E+03 ,  0.0000000000000E+00 ,  0.0000000000000E+00 ,  0.5039869957481E-12 ,  0.0000000000000E+00 ,  0.0000000000000E+00 ,  0.1511138636785E-11 , -0.1511138636785E-11 , 
    1, 0.4022481000000E-02 ,  0.8500000000000E+03 , -0.9000000000000E+03 ,  0.0000000000000E+00 ,  0.0000000000000E+00 ,  0.4325208362900E-12 ,  0.0000000000000E+00 ,  0.0000000000000E+00 ,  0.1290929863751E-11 , -0.1290929863751E-11 , 
    1, 0.4022481000000E-02 ,  0.9000000000000E+03 , -0.9500000000000E+03 ,  0.0000000000000E+00 ,  0.0000000000000E+00 ,  0.6175278712319E-12 ,  0.0000000000000E+00 ,  0.0000000000000E+00 ,  0.1834726823019E-11 , -0.1834726823019E-11 , 
    1, 0.4022481000000E-02 ,  0.9500000000000E+03 , -0.1000000000000E+04 ,  0.0000000000000E+00 ,  0.0000000000000E+00 ,  0.4401760440855E-12 ,  0.0000000000000E+00 ,  0.0000000000000E+00 ,  0.1301883217212E-11 , -0.1301883217212E-11 , 
    1, 0.4022481000000E-02 ,  0.1000000000000E+04 , -0.1050000000000E+04 ,  0.0000000000000E+00 ,  0.0000000000000E+00 ,  0.2830685046219E-12 ,  0.0000000000000E+00 ,  0.0000000000000E+00 ,  0.1792089596077E-11 , -0.1792089596077E-11 , 
    1, 0.6265427629000E-02 ,  0.1000000000000E-14 , -0.1000000000000E-14 ,  0.0000000000000E+00 ,  0.0000000000000E+00 ,  0.1677815668483E+02 ,  0.0000000000000E+00 ,  0.0000000000000E+00 ,  0.7634102309659E+01 , -0.7634102309659E+01 , 
    1, 0.6265427629000E-02 ,  0.5000000000000E+02 , -0.5000000000000E+02 ,  0.0000000000000E+00 ,  0.0000000000000E+00 ,  0.3574702933307E-02 ,  0.0000000000000E+00 ,  0.0000000000000E+00 ,  0.1147237941542E-01 , -0.1147237941542E-01 , 
    1, 0.6265427629000E-02 ,  0.1000000000000E+03 , -0.1500000000000E+03 ,  0.0000000000000E+00 ,  0.0000000000000E+00 ,  0.5037257659887E-06 ,  0.0000000000000E+00 ,  0.0000000000000E+00 ,  0.1614777660328E-05 , -0.1614777660328E-05 , 
    1, 0.6265427629000E-02 ,  0.1500000000000E+03 , -0.2000000000000E+03 ,  0.0000000000000E+00 ,  0.0000000000000E+00 ,  0.6103346940134E-10 ,  0.0000000000000E+00 ,  0.0000000000000E+00 ,  0.1946866716194E-09 , -0.1946866716194E-09 , 
    1, 0.6265427629000E-02 ,  0.2000000000000E+03 , -0.2500000000000E+03 ,  0.0000000000000E+00 ,  0.0000000000000E+00 ,  0.3838339498957E-12 ,  0.0000000000000E+00 ,  0.0000000000000E+00 ,  0.1218347447144E-11 , -0.1218347447144E-11 , 
    1, 0.6265427629000E-02 ,  0.2500000000000E+03 , -0.3000000000000E+03 ,  0.0000000000000E+00 ,  0.0000000000000E+00 ,  0.2329132839088E-12 ,  0.0000000000000E+00 ,  0.0000000000000E+00 ,  0.7356928393410E-12 , -0.7356928393410E-12 , 
    1, 0.6265427629000E-02 ,  0.3000000000000E+03 , -0.3500000000000E+03 ,  0.0000000000000E+00 ,  0.0000000000000E+00 ,  0.5613937551784E-12 ,  0.0000000000000E+00 ,  0.0000000000000E+00 ,  0.1764643498372E-11 , -0.1764643498372E-11 , 
    1, 0.6265427629000E-02 ,  0.3500000000000E+03 , -0.4000000000000E+03 ,  0.0000000000000E+00 ,  0.0000000000000E+00 ,  0.3500970256954E-12 ,  0.0000000000000E+00 ,  0.0000000000000E+00 ,  0.1095157871359E-11 , -0.1095157871359E-11 , 
    1, 0.6265427629000E-02 ,  0.4000000000000E+03 , -0.4500000000000E+03 ,  0.0000000000000E+00 ,  0.0000000000000E+00 ,  0.7028993860920E-12 ,  0.0000000000000E+00 ,  0.0000000000000E+00 ,  0.2188217163934E-11 , -0.2188217163934E-11 , 
    1, 0.6265427629000E-02 ,  0.4500000000000E+03 , -0.5000000000000E+03 ,  0.0000000000000E+00 ,  0.0000000000000E+00 ,  0.8498825379280E-12 ,  0.0000000000000E+00 ,  0.0000000000000E+00 ,  0.2633166187095E-11 , -0.2633166187095E-11 , 
    1, 0.6265427629000E-02 ,  0.5000000000000E+03 , -0.5500000000000E+03 ,  0.0000000000000E+00 ,  0.0000000000000E+00 ,  0.5231202985585E-12 ,  0.0000000000000E+00 ,  0.0000000000000E+00 ,  0.1613076768097E-11 , -0.1613076768097E-11 , 
    1, 0.6265427629000E-02 ,  0.5500000000000E+03 , -0.6000000000000E+03 ,  0.0000000000000E+00 ,  0.0000000000000E+00 ,  0.8735533761605E-12 ,  0.0000000000000E+00 ,  0.0000000000000E+00 ,  0.2680942479819E-11 , -0.2680942479819E-11 , 
    1, 0.6265427629000E-02 ,  0.6000000000000E+03 , -0.6500000000000E+03 ,  0.0000000000000E+00 ,  0.0000000000000E+00 ,  0.6576966903114E-12 ,  0.0000000000000E+00 ,  0.0000000000000E+00 ,  0.2008997845253E-11 , -0.2008997845253E-11 , 
    1, 0.6265427629000E-02 ,  0.6500000000000E+03 , -0.7000000000000E+03 ,  0.0000000000000E+00 ,  0.0000000000000E+00 ,  0.7115449685143E-12 ,  0.0000000000000E+00 ,  0.0000000000000E+00 ,  0.2163333327210E-11 , -0.2163333327210E-11 , 
    1, 0.6265427629000E-02 ,  0.7000000000000E+03 , -0.7500000000000E+03 ,  0.0000000000000E+00 ,  0.0000000000000E+00 ,  0.7853709028485E-12 ,  0.0000000000000E+00 ,  0.0000000000000E+00 ,  0.2376698853303E-11 , -0.2376698853303E-11 , 
    1, 0.6265427629000E-02 ,  0.7500000000000E+03 , -0.8000000000000E+03 ,  0.0000000000000E+00 ,  0.0000000000000E+00 ,  0.1173471862921E-11 ,  0.0000000000000E+00 ,  0.0000000000000E+00 ,  0.3534769033848E-11 , -0.3534769033848E-11 , 
    1, 0.6265427629000E-02 ,  0.8000000000000E+03 , -0.8500000000000E+03 ,  0.0000000000000E+00 ,  0.0000000000000E+00 ,  0.8772669189808E-12 ,  0.0000000000000E+00 ,  0.0000000000000E+00 ,  0.2630369329426E-11 , -0.2630369329426E-11 , 
    1, 0.6265427629000E-02 ,  0.8500000000000E+03 , -0.9000000000000E+03 ,  0.0000000000000E+00 ,  0.0000000000000E+00 ,  0.7528860848443E-12 ,  0.0000000000000E+00 ,  0.0000000000000E+00 ,  0.2247112854180E-11 , -0.2247112854180E-11 , 
    1, 0.6265427629000E-02 ,  0.9000000000000E+03 , -0.9500000000000E+03 ,  0.0000000000000E+00 ,  0.0000000000000E+00 ,  0.1074589337208E-11 ,  0.0000000000000E+00 ,  0.0000000000000E+00 ,  0.3192694569029E-11 , -0.3192694569029E-11 , 
    1, 0.6265427629000E-02 ,  0.9500000000000E+03 , -0.1000000000000E+04 ,  0.0000000000000E+00 ,  0.0000000000000E+00 ,  0.7661173054014E-12 ,  0.0000000000000E+00 ,  0.0000000000000E+00 ,  0.2265900826997E-11 , -0.2265900826997E-11 , 
    1, 0.6265427629000E-02 ,  0.1000000000000E+04 , -0.1050000000000E+04 ,  0.0000000000000E+00 ,  0.0000000000000E+00 ,  0.4928530005955E-12 ,  0.0000000000000E+00 ,  0.0000000000000E+00 ,  0.3120222562176E-11 , -0.3120222562176E-11 , 
    1, 0.9201444766361E-02 ,  0.1000000000000E-14 , -0.1000000000000E-14 ,  0.0000000000000E+00 ,  0.0000000000000E+00 ,  0.2592223784290E+02 ,  0.0000000000000E+00 ,  0.0000000000000E+00 ,  0.1195273957563E+02 , -0.1195273957563E+02 , 
    1, 0.9201444766361E-02 ,  0.5000000000000E+02 , -0.5000000000000E+02 ,  0.0000000000000E+00 ,  0.0000000000000E+00 ,  0.1155864521564E-01 ,  0.0000000000000E+00 ,  0.0000000000000E+00 ,  0.3691515326405E-01 , -0.3691515326405E-01 , 
    1, 0.9201444766361E-02 ,  0.1000000000000E+03 , -0.1500000000000E+03 ,  0.0000000000000E+00 ,  0.0000000000000E+00 ,  0.3079307050006E-05 ,  0.0000000000000E+00 ,  0.0000000000000E+00 ,  0.9871215156662E-05 , -0.9871215156662E-05 , 
    1, 0.9201444766361E-02 ,  0.1500000000000E+03 , -0.2000000000000E+03 ,  0.0000000000000E+00 ,  0.0000000000000E+00 ,  0.6710697434652E-09 ,  0.0000000000000E+00 ,  0.0000000000000E+00 ,  0.2140601476302E-08 , -0.2140601476302E-08 , 
    1, 0.9201444766361E-02 ,  0.2000000000000E+03 , -0.2500000000000E+03 ,  0.0000000000000E+00 ,  0.0000000000000E+00 ,  0.7198514250870E-12 ,  0.0000000000000E+00 ,  0.0000000000000E+00 ,  0.2284918117107E-11 , -0.2284918117107E-11 , 
    1, 0.9201444766361E-02 ,  0.2500000000000E+03 , -0.3000000000000E+03 ,  0.0000000000000E+00 ,  0.0000000000000E+00 ,  0.3628192970009E-12 ,  0.0000000000000E+00 ,  0.0000000000000E+00 ,  0.1146021189941E-11 , -0.1146021189941E-11 , 
    1, 0.9201444766361E-02 ,  0.3000000000000E+03 , -0.3500000000000E+03 ,  0.0000000000000E+00 ,  0.0000000000000E+00 ,  0.8738097601518E-12 ,  0.0000000000000E+00 ,  0.0000000000000E+00 ,  0.2746668800360E-11 , -0.2746668800360E-11 , 
    1, 0.9201444766361E-02 ,  0.3500000000000E+03 , -0.4000000000000E+03 ,  0.0000000000000E+00 ,  0.0000000000000E+00 ,  0.5455180375127E-12 ,  0.0000000000000E+00 ,  0.0000000000000E+00 ,  0.1706465147951E-11 , -0.1706465147951E-11 , 
    1, 0.9201444766361E-02 ,  0.4000000000000E+03 , -0.4500000000000E+03 ,  0.0000000000000E+00 ,  0.0000000000000E+00 ,  0.1094119264537E-11 ,  0.0000000000000E+00 ,  0.0000000000000E+00 ,  0.3406135503065E-11 , -0.3406135503065E-11 , 
    1, 0.9201444766361E-02 ,  0.4500000000000E+03 , -0.5000000000000E+03 ,  0.0000000000000E+00 ,  0.0000000000000E+00 ,  0.1322956157770E-11 ,  0.0000000000000E+00 ,  0.0000000000000E+00 ,  0.4098876334301E-11 , -0.4098876334301E-11 , 
    1, 0.9201444766361E-02 ,  0.5000000000000E+03 , -0.5500000000000E+03 ,  0.0000000000000E+00 ,  0.0000000000000E+00 ,  0.8143239336941E-12 ,  0.0000000000000E+00 ,  0.0000000000000E+00 ,  0.2511022842674E-11 , -0.2511022842674E-11 , 
    1, 0.9201444766361E-02 ,  0.5500000000000E+03 , -0.6000000000000E+03 ,  0.0000000000000E+00 ,  0.0000000000000E+00 ,  0.1360074720000E-11 ,  0.0000000000000E+00 ,  0.0000000000000E+00 ,  0.4174080476457E-11 , -0.4174080476457E-11 , 
    1, 0.9201444766361E-02 ,  0.6000000000000E+03 , -0.6500000000000E+03 ,  0.0000000000000E+00 ,  0.0000000000000E+00 ,  0.1024088269160E-11 ,  0.0000000000000E+00 ,  0.0000000000000E+00 ,  0.3128176188811E-11 , -0.3128176188811E-11 , 
    1, 0.9201444766361E-02 ,  0.6500000000000E+03 , -0.7000000000000E+03 ,  0.0000000000000E+00 ,  0.0000000000000E+00 ,  0.1107795618191E-11 ,  0.0000000000000E+00 ,  0.0000000000000E+00 ,  0.3368067074626E-11 , -0.3368067074626E-11 , 
    1, 0.9201444766361E-02 ,  0.7000000000000E+03 , -0.7500000000000E+03 ,  0.0000000000000E+00 ,  0.0000000000000E+00 ,  0.1222811527916E-11 ,  0.0000000000000E+00 ,  0.0000000000000E+00 ,  0.3700486923647E-11 , -0.3700486923647E-11 , 
    1, 0.9201444766361E-02 ,  0.7500000000000E+03 , -0.8000000000000E+03 ,  0.0000000000000E+00 ,  0.0000000000000E+00 ,  0.1826692316985E-11 ,  0.0000000000000E+00 ,  0.0000000000000E+00 ,  0.5502420331048E-11 , -0.5502420331048E-11 , 
    1, 0.9201444766361E-02 ,  0.8000000000000E+03 , -0.8500000000000E+03 ,  0.0000000000000E+00 ,  0.0000000000000E+00 ,  0.1365888716509E-11 ,  0.0000000000000E+00 ,  0.0000000000000E+00 ,  0.4095437442791E-11 , -0.4095437442791E-11 , 
    1, 0.9201444766361E-02 ,  0.8500000000000E+03 , -0.9000000000000E+03 ,  0.0000000000000E+00 ,  0.0000000000000E+00 ,  0.1172374741222E-11 ,  0.0000000000000E+00 ,  0.0000000000000E+00 ,  0.3499146024808E-11 , -0.3499146024808E-11 , 
    1, 0.9201444766361E-02 ,  0.9000000000000E+03 , -0.9500000000000E+03 ,  0.0000000000000E+00 ,  0.0000000000000E+00 ,  0.1672880811915E-11 ,  0.0000000000000E+00 ,  0.0000000000000E+00 ,  0.4970268453165E-11 , -0.4970268453165E-11 , 
    1, 0.9201444766361E-02 ,  0.9500000000000E+03 , -0.1000000000000E+04 ,  0.0000000000000E+00 ,  0.0000000000000E+00 ,  0.1192644457124E-11 ,  0.0000000000000E+00 ,  0.0000000000000E+00 ,  0.3527415504984E-11 , -0.3527415504984E-11 , 
    1, 0.9201444766361E-02 ,  0.1000000000000E+04 , -0.1050000000000E+04 ,  0.0000000000000E+00 ,  0.0000000000000E+00 ,  0.7676385641701E-12 ,  0.0000000000000E+00 ,  0.0000000000000E+00 ,  0.4859873359046E-11 , -0.4859873359046E-11 , 
    1, 0.1304469119917E-01 ,  0.1000000000000E-14 , -0.1000000000000E-14 ,  0.0000000000000E+00 ,  0.0000000000000E+00 ,  0.3751717653802E+02 ,  0.0000000000000E+00 ,  0.0000000000000E+00 ,  0.1774979466197E+02 , -0.1774979466197E+02 , 
    1, 0.1304469119917E-01 ,  0.5000000000000E+02 , -0.5000000000000E+02 ,  0.0000000000000E+00 ,  0.0000000000000E+00 ,  0.3321744723129E-01 ,  0.0000000000000E+00 ,  0.0000000000000E+00 ,  0.1051200042428E+00 , -0.1051200042428E+00 , 
    1, 0.1304469119917E-01 ,  0.1000000000000E+03 , -0.1500000000000E+03 ,  0.0000000000000E+00 ,  0.0000000000000E+00 ,  0.1629800505544E-04 ,  0.0000000000000E+00 ,  0.0000000000000E+00 ,  0.5224545508845E-04 , -0.5224545508845E-04 , 
    1, 0.1304469119917E-01 ,  0.1500000000000E+03 , -0.2000000000000E+03 ,  0.0000000000000E+00 ,  0.0000000000000E+00 ,  0.6328178771568E-08 ,  0.0000000000000E+00 ,  0.0000000000000E+00 ,  0.2018584342166E-07 , -0.2018584342166E-07 , 
    1, 0.1304469119917E-01 ,  0.2000000000000E+03 , -0.2500000000000E+03 ,  0.0000000000000E+00 ,  0.0000000000000E+00 ,  0.3055844874535E-11 ,  0.0000000000000E+00 ,  0.0000000000000E+00 ,  0.9699717293801E-11 , -0.9699717293801E-11 , 
    1, 0.1304469119917E-01 ,  0.2500000000000E+03 , -0.3000000000000E+03 ,  0.0000000000000E+00 ,  0.0000000000000E+00 ,  0.5340617997160E-12 ,  0.0000000000000E+00 ,  0.0000000000000E+00 ,  0.1686917273342E-11 , -0.1686917273342E-11 , 
    1, 0.1304469119917E-01 ,  0.3000000000000E+03 , -0.3500000000000E+03 ,  0.0000000000000E+00 ,  0.0000000000000E+00 ,  0.1282758444518E-11 ,  0.0000000000000E+00 ,  0.0000000000000E+00 ,  0.4032127768113E-11 , -0.4032127768113E-11 , 
    1, 0.1304469119917E-01 ,  0.3500000000000E+03 , -0.4000000000000E+03 ,  0.0000000000000E+00 ,  0.0000000000000E+00 ,  0.8016621519605E-12 ,  0.0000000000000E+00 ,  0.0000000000000E+00 ,  0.2507723720721E-11 , -0.2507723720721E-11 , 
    1, 0.1304469119917E-01 ,  0.4000000000000E+03 , -0.4500000000000E+03 ,  0.0000000000000E+00 ,  0.0000000000000E+00 ,  0.1605712033598E-11 ,  0.0000000000000E+00 ,  0.0000000000000E+00 ,  0.4998790298837E-11 , -0.4998790298837E-11 , 
    1, 0.1304469119917E-01 ,  0.4500000000000E+03 , -0.5000000000000E+03 ,  0.0000000000000E+00 ,  0.0000000000000E+00 ,  0.1942036218003E-11 ,  0.0000000000000E+00 ,  0.0000000000000E+00 ,  0.6016953961456E-11 , -0.6016953961456E-11 , 
    1, 0.1304469119917E-01 ,  0.5000000000000E+03 , -0.5500000000000E+03 ,  0.0000000000000E+00 ,  0.0000000000000E+00 ,  0.1195851132579E-11 ,  0.0000000000000E+00 ,  0.0000000000000E+00 ,  0.3687487725827E-11 , -0.3687487725827E-11 , 
    1, 0.1304469119917E-01 ,  0.5500000000000E+03 , -0.6000000000000E+03 ,  0.0000000000000E+00 ,  0.0000000000000E+00 ,  0.1996589240647E-11 ,  0.0000000000000E+00 ,  0.0000000000000E+00 ,  0.6127548763564E-11 , -0.6127548763564E-11 , 
    1, 0.1304469119917E-01 ,  0.6000000000000E+03 , -0.6500000000000E+03 ,  0.0000000000000E+00 ,  0.0000000000000E+00 ,  0.1504033987837E-11 ,  0.0000000000000E+00 ,  0.0000000000000E+00 ,  0.4594216582299E-11 , -0.4594216582299E-11 , 
    1, 0.1304469119917E-01 ,  0.6500000000000E+03 , -0.7000000000000E+03 ,  0.0000000000000E+00 ,  0.0000000000000E+00 ,  0.1626485461658E-11 ,  0.0000000000000E+00 ,  0.0000000000000E+00 ,  0.4945056688089E-11 , -0.4945056688089E-11 , 
    1, 0.1304469119917E-01 ,  0.7000000000000E+03 , -0.7500000000000E+03 ,  0.0000000000000E+00 ,  0.0000000000000E+00 ,  0.1795585273482E-11 ,  0.0000000000000E+00 ,  0.0000000000000E+00 ,  0.5433821707696E-11 , -0.5433821707696E-11 , 
    1, 0.1304469119917E-01 ,  0.7500000000000E+03 , -0.8000000000000E+03 ,  0.0000000000000E+00 ,  0.0000000000000E+00 ,  0.2681408771333E-11 ,  0.0000000000000E+00 ,  0.0000000000000E+00 ,  0.8077024248716E-11 , -0.8077024248716E-11 , 
    1, 0.1304469119917E-01 ,  0.8000000000000E+03 , -0.8500000000000E+03 ,  0.0000000000000E+00 ,  0.0000000000000E+00 ,  0.2005152704104E-11 ,  0.0000000000000E+00 ,  0.0000000000000E+00 ,  0.6012186325022E-11 , -0.6012186325022E-11 , 
    1, 0.1304469119917E-01 ,  0.8500000000000E+03 , -0.9000000000000E+03 ,  0.0000000000000E+00 ,  0.0000000000000E+00 ,  0.1721992802153E-11 ,  0.0000000000000E+00 ,  0.0000000000000E+00 ,  0.5139571893301E-11 , -0.5139571893301E-11 , 
    1, 0.1304469119917E-01 ,  0.9000000000000E+03 , -0.9500000000000E+03 ,  0.0000000000000E+00 ,  0.0000000000000E+00 ,  0.2455870324909E-11 ,  0.0000000000000E+00 ,  0.0000000000000E+00 ,  0.7296595617585E-11 , -0.7296595617585E-11 , 
    1, 0.1304469119917E-01 ,  0.9500000000000E+03 , -0.1000000000000E+04 ,  0.0000000000000E+00 ,  0.0000000000000E+00 ,  0.1750964365054E-11 ,  0.0000000000000E+00 ,  0.0000000000000E+00 ,  0.5178725992541E-11 , -0.5178725992541E-11 , 